LAMMPS (23 Jun 2022 - Update 1)
OMP_NUM_THREADS environment is not set. Defaulting to 1 thread. (src/comm.cpp:98)
  using 1 OpenMP thread(s) per MPI task


variable        runtime equal 1000000
variable		subsample_rate equal 1000

variable		outputfile_created string '3_created.data'
variable		outputfile_relaxed string '5_relaxed.data'
variable		outputfile_selfasb string '6_a_self_assemble.lammpstrj'
variable		outputfile_trajlin string '6_b_trajlin.data'
variable		outputfile_assembled string '7_assembled.data'

units           lj
atom_style      full
dimension       3
boundary        p p p
timestep        0.005

read_data       ${outputfile_created}
read_data       3_created.data
Reading data file ...
  orthogonal box = (0 0 0) to (35 35 35)
  1 by 1 by 1 MPI processor grid
  reading atoms ...
  100 atoms
  reading velocities ...
  100 velocities
  scanning bonds ...
  1 = max bonds/atom
  reading bonds ...
  99 bonds
Finding 1-2 1-3 1-4 neighbors ...
  special bond factors lj:    0        0        0       
  special bond factors coul:  0        0        0       
     2 = max # of 1-2 neighbors
     2 = max # of 1-3 neighbors
     4 = max # of 1-4 neighbors
     6 = max # of special neighbors
  special bonds CPU = 0.000 seconds
  read_data CPU = 0.005 seconds

bond_style      fene
bond_coeff      * 30.0 1.5 1.0 1.0
special_bonds   fene
Finding 1-2 1-3 1-4 neighbors ...
  special bond factors lj:    0        1        1       
  special bond factors coul:  0        1        1       
     2 = max # of 1-2 neighbors
     6 = max # of special neighbors
  special bonds CPU = 0.000 seconds

variable        Temp equal 1.0
variable        velSeed equal 926458

velocity        all create ${Temp} ${velSeed}
velocity        all create 1 ${velSeed}
velocity        all create 1 926458

### Output
thermo_style    custom step temp density press etotal pe ke epair spcpu
thermo          1000

###########################################################################
# Soft relaxation (to remove overlaps of particles)
######################################################################

pair_style      soft 1.0
pair_coeff      * * 0.0
variable        prefactor equal ramp(0,300)
fix             rampSoft all adapt 1 pair soft a * * v_prefactor

minimize        0.0 1.0e-8 1000 100000
WARNING: Using 'neigh_modify every 1 delay 0 check yes' setting during minimization (src/min.cpp:187)
Generated 0 of 6 mixed pair_coeff terms from geometric mixing rule
Neighbor list info ...
  update every 1 steps, delay 0 steps, check yes
  max neighbors/atom: 2000, page size: 100000
  master list distance cutoff = 1.3
  ghost atom cutoff = 1.3
  binsize = 0.65, bins = 54 54 54
  1 neighbor lists, perpetual/occasional/extra = 1 0 0
  (1) pair soft, perpetual
      attributes: half, newton on
      pair build: half/bin/newton
      stencil: half/bin/3d
      bin: standard
WARNING: Communication cutoff 1.3 is shorter than a bond length based estimate of 1.7550000000000001. This may lead to errors. (src/comm.cpp:727)
Per MPI rank memory allocation (min/avg/max) = 8.346 | 8.346 | 8.346 Mbytes
   Step          Temp         Density         Press          TotEng         PotEng         KinEng         E_pair         S/CPU     
         0   1              0.0023323615  -0.0039617958   21.524174      20.039174      1.485          0              0            
       362   1              0.0023323615   0.0023090379   21.485548      20.000548      1.485          0              67624.443    
Loop time of 0.00535551 on 1 procs for 362 steps with 100 atoms

99.4% CPU use with 1 MPI tasks x 1 OpenMP threads

Minimization stats:
  Stopping criterion = force tolerance
  Energy initial, next-to-last, final = 
      20.0391741078675   20.0005480767337   20.0005480767337
  Force two-norm initial, final = 11.878422 7.9509778e-09
  Force max component initial, final = 6.6117807 1.3572772e-09
  Final line search alpha, max atom move = 1 1.3572772e-09
  Iterations, force evaluations = 362 738

MPI task timing breakdown:
Section |  min time  |  avg time  |  max time  |%varavg| %total
---------------------------------------------------------------
Pair    | 0.00022325 | 0.00022325 | 0.00022325 |   0.0 |  4.17
Bond    | 0.0023427  | 0.0023427  | 0.0023427  |   0.0 | 43.74
Neigh   | 0.0016108  | 0.0016108  | 0.0016108  |   0.0 | 30.08
Comm    | 0.00018394 | 0.00018394 | 0.00018394 |   0.0 |  3.43
Output  | 0          | 0          | 0          |   0.0 |  0.00
Modify  | 0          | 0          | 0          |   0.0 |  0.00
Other   |            | 0.0009948  |            |       | 18.58

Nlocal:            100 ave         100 max         100 min
Histogram: 1 0 0 0 0 0 0 0 0 0
Nghost:             20 ave          20 max          20 min
Histogram: 1 0 0 0 0 0 0 0 0 0
Neighs:              0 ave           0 max           0 min
Histogram: 1 0 0 0 0 0 0 0 0 0

Total # of neighbors = 0
Ave neighs/atom = 0
Ave special neighs/atom = 1.98
Neighbor list builds = 17
Dangerous builds = 0

fix             nvtSoft all nvt temp ${Temp} ${Temp} 0.5
fix             nvtSoft all nvt temp 1 ${Temp} 0.5
fix             nvtSoft all nvt temp 1 1 0.5
run             100000
Generated 0 of 6 mixed pair_coeff terms from geometric mixing rule
WARNING: Communication cutoff 1.3 is shorter than a bond length based estimate of 1.7550000000000001. This may lead to errors. (src/comm.cpp:727)
Per MPI rank memory allocation (min/avg/max) = 7.221 | 7.221 | 7.221 Mbytes
   Step          Temp         Density         Press          TotEng         PotEng         KinEng         E_pair         S/CPU     
       362   1              0.0023323615   0.0023090379   21.485548      20.000548      1.485          0              0            
      1000   0.90989032     0.0023323615  -0.0021940042   21.776974      20.425787      1.3511871      0.00036425437  75651.343    
      2000   0.86546688     0.0023323615   0.0034714157   21.677128      20.39191       1.2852183      0.0025814786   74239.943    
      3000   0.98199538     0.0023323615   0.0028144228   21.866132      20.407869      1.4582631      0.0011756043   69011.75     
      4000   1.004495       0.0023323615  -0.0014058211   21.945624      20.453949      1.4916751      0.011986179    72024.922    
      5000   1.1222705      0.0023323615   0.0044495116   21.986385      20.319813      1.6665718      0.0050317639   73118.956    
      6000   1.0538243      0.0023323615   0.0023957538   21.985713      20.420784      1.564929       0.012100514    71647.562    
      7000   1.0210598      0.0023323615  -0.00038820026  21.904665      20.388391      1.5162738      0              74922.255    
      8000   0.94819751     0.0023323615   0.0024943091   21.747889      20.339816      1.4080733      0              75878.907    
      9000   0.92364502     0.0023323615   0.0020053029   21.724166      20.352554      1.3716129      1.7780894e-05  74621.865    
     10000   0.86685188     0.0023323615   0.00078277366  21.644879      20.357604      1.287275       0.0098636418   74897.8      
     11000   1.0057103      0.0023323615   0.00010113276  21.8558        20.362321      1.4934798      0.020705341    74577.261    
     12000   0.97901664     0.0023323615  -0.0026996968   21.871206      20.417366      1.4538397      0.0052928539   74299.626    
     13000   0.97718436     0.0023323615  -6.1641422e-06  21.963706      20.512587      1.4511188      0.025022446    74396.044    
     14000   1.0530014      0.0023323615  -0.0009993112   21.947994      20.384287      1.5637071      0.0020860456   73711.642    
     15000   0.99094527     0.0023323615   0.0011068478   21.895146      20.423592      1.4715537      0.0015091113   74699.653    
     16000   0.91285091     0.0023323615  -0.00025424173  21.87524       20.519657      1.3555836      0.0047853639   74061.687    
     17000   0.82806978     0.0023323615  -0.00054698156  21.701984      20.472301      1.2296836      0              74716.542    
     18000   1.043278       0.0023323615  -6.6143919e-05  22.003299      20.454031      1.5492679      0.0034319132   75373.922    
     19000   1.0879249      0.0023323615  -0.0017804642   21.998985      20.383416      1.6155685      0.015376175    74045.531    
     20000   1.1144506      0.0023323615   0.0025198298   22.190904      20.535944      1.6549592      0              75014.832    
     21000   1.0427751      0.0023323615   0.0011345349   22.099492      20.550971      1.548521       0.00040047813  75453.458    
     22000   1.0586695      0.0023323615   0.0017882747   22.05673       20.484606      1.5721242      0              74966.829    
     23000   1.0058426      0.0023323615  -0.0055245362   21.954628      20.460951      1.4936763      0.0027619031   74141.4      
     24000   0.98273442     0.0023323615   0.0015147357   21.862067      20.402707      1.4593606      0              74462.592    
     25000   0.95835343     0.0023323615   0.0017808774   21.937761      20.514606      1.4231548      0.00020839942  74064.265    
     26000   0.93993778     0.0023323615  -0.0021777292   21.884849      20.489042      1.3958076      0.0088889834   74640.501    
     27000   0.9308188      0.0023323615  -0.00011239942  21.842252      20.459986      1.3822659      0.021612409    73858.582    
     28000   1.0149581      0.0023323615   0.0041996387   21.906846      20.399633      1.5072129      0.0064059022   74025.212    
     29000   0.92841138     0.0023323615  -2.5398808e-05  21.987185      20.608494      1.3786909      0.0046112484   74398.485    
     30000   1.021043       0.0023323615   0.001589158    22.097958      20.581709      1.5162489      0.016799508    72266.632    
     31000   1.0465985      0.0023323615  -0.0021744286   22.037917      20.483718      1.5541987      0.0057879149   74814.997    
     32000   0.98907108     0.0023323615  -0.0015558606   22.044089      20.575318      1.4687705      0.009448173    74374.757    
     33000   1.0918536      0.0023323615  -0.0025643847   22.039275      20.417873      1.6214025      0              73450.242    
     34000   0.99801543     0.0023323615   0.0016279766   21.932339      20.450286      1.4820529      0.017384617    75896.737    
     35000   1.0352271      0.0023323615  -0.0052971711   22.076004      20.538692      1.5373122      0.00010473809  74262.646    
     36000   1.1141579      0.0023323615  -0.00093279925  22.222491      20.567966      1.6545245      0.00033678641  75479.366    
     37000   1.0369415      0.0023323615   0.00013065175  22.217841      20.677983      1.5398581      0.013788831    74684.06     
     38000   1.0515596      0.0023323615   0.0021717558   22.070766      20.5092        1.561566       0.0067894678   75426.033    
     39000   1.0238495      0.0023323615   0.00026414509  22.040141      20.519725      1.5204165      0.00044464649  74017.201    
     40000   1.0749111      0.0023323615  -0.0026849368   22.039327      20.443084      1.596243       0.012651334    72773.398    
     41000   0.99070886     0.0023323615  -0.0030385564   22.03241       20.561207      1.4712027      0.00092855646  75786.949    
     42000   0.95315224     0.0023323615   0.0019788197   21.965263      20.549832      1.4154311      0.020233689    74203.353    
     43000   1.0644183      0.0023323615  -0.0011168725   22.287172      20.706511      1.5806611      0.039694129    74325.636    
     44000   1.0253747      0.0023323615  -0.006676522    22.066233      20.543552      1.5226814      0              73549.454    
     45000   0.94179556     0.0023323615  -0.0047206018   21.970644      20.572077      1.3985664      0.019869988    74001.668    
     46000   1.0083495      0.0023323615  -0.0017646918   21.972114      20.474715      1.497399       0.00026040605  74185.594    
     47000   0.98767959     0.0023323615  -0.00080218158  22.091674      20.62497       1.4667042      0.024266258    73720.021    
     48000   1.1473449      0.0023323615  -0.0025885687   22.080512      20.376705      1.7038072      0.00065962995  74172.036    
     49000   1.0679312      0.0023323615   0.0017688272   21.970482      20.384604      1.5858779      0.014142422    75221.797    
     50000   0.9581935      0.0023323615   0.0014398836   21.955202      20.532284      1.4229173      0.0055011948   75014.208    
     51000   1.0215759      0.0023323615  -0.00093292688  21.934681      20.41764       1.5170402      0              74583.78     
     52000   0.98079591     0.0023323615   0.0040701936   21.977374      20.520892      1.4564819      0.0020862422   75379.383    
     53000   1.0090927      0.0023323615   0.0013324753   22.095438      20.596935      1.4985027      0              74730.138    
     54000   0.97519627     0.0023323615   0.0013260734   22.070151      20.621984      1.4481665      0.026885444    75566.456    
     55000   1.1805087      0.0023323615  -0.001586238    22.424088      20.671033      1.7530554      0.024690954    75226.33     
     56000   0.98387121     0.0023323615   0.0037155145   22.104425      20.643376      1.4610487      0.01435493     74701.668    
     57000   1.0723812      0.0023323615  -0.0037916262   22.122726      20.53024       1.592486       0.013635549    74902.58     
     58000   1.0152349      0.0023323615   0.00021908047  22.082827      20.575203      1.5076238      0.00077375639  74251.271    
     59000   1.1424502      0.0023323615  -0.0052108657   22.30072       20.604182      1.6965385      0.013308184    75582.819    
     60000   1.0359703      0.0023323615  -0.00097887545  22.188218      20.649802      1.538416       0.00011346294  73997.44     
     61000   1.1646839      0.0023323615  -0.002085017    22.239945      20.51039       1.7295556      0.012918477    76308.71     
     62000   1.101836       0.0023323615   0.0010338878   22.171386      20.53516       1.6362265      0.001396566    75278.361    
     63000   0.96616435     0.0023323615   0.00097550571  21.903821      20.469067      1.4347541      0.013027663    76570.669    
     64000   1.0068907      0.0023323615  -0.0020278726   22.061652      20.566419      1.4952327      0.013750276    75020.19     
     65000   0.98723233     0.0023323615   0.0022441476   22.031073      20.565033      1.46604        0.0066686189   75488.271    
     66000   1.0273881      0.0023323615  -0.0003515278   22.183579      20.657908      1.5256713      0              73485.342    
     67000   0.96528212     0.0023323615  -0.00014822656  21.9396        20.506156      1.4334439      0.010365557    75441.937    
     68000   1.069702       0.0023323615   9.4754668e-05  22.081119      20.492611      1.5885075      0.00049153926  72879.137    
     69000   1.1229502      0.0023323615   0.0011504079   22.200329      20.532748      1.6675811      0.0068454249   75610.187    
     70000   1.0062775      0.0023323615  -0.00085311964  22.094021      20.599699      1.4943221      0.013222355    73981.373    
     71000   1.0906935      0.0023323615   0.00015260357  22.145362      20.525682      1.6196798      0.018338513    74820.326    
     72000   1.010401       0.0023323615  -6.0487182e-06  22.154105      20.653659      1.5004455      0.0013793953   73511.212    
     73000   1.1177599      0.0023323615  -0.0034084797   22.254435      20.594562      1.6598735      0.00011231735  76172.497    
     74000   0.9768019      0.0023323615   0.00016143893  22.07312       20.622569      1.4505508      0.0084515956   74396.818    
     75000   1.1360996      0.0023323615   0.002159116    22.161595      20.474487      1.6871079      0.0089909162   74905.559    
     76000   0.97379329     0.0023323615  -0.00068458621  21.988928      20.542845      1.446083       0              74215.992    
     77000   0.94876793     0.0023323615  -0.0016073976   21.923496      20.514575      1.4089204      0.017745108    74443.762    
     78000   0.83947996     0.0023323615  -0.00062768559  21.726727      20.480099      1.2466277      0.0054510099   75006.826    
     79000   1.0090614      0.0023323615  -0.00080262643  22.068192      20.569736      1.4984562      0.00023011166  75762.213    
     80000   1.1217643      0.0023323615  -0.0038177864   22.367902      20.702082      1.66582        0.032902439    75038.913    
     81000   1.0240158      0.0023323615   0.00023547123  22.031597      20.510933      1.5206635      0.0068767308   74406.251    
     82000   1.003236       0.0023323615  -0.0022802982   21.894199      20.404393      1.4898055      0.019136282    73557.201    
     83000   1.0554159      0.0023323615   0.004011718    22.104562      20.537269      1.5672927      0.0080869707   73292.381    
     84000   0.83527346     0.0023323615  -0.0034122221   21.874648      20.634267      1.2403811      0.0030083664   74443.097    
     85000   1.036002       0.0023323615   0.0013573923   21.962923      20.42446       1.5384629      0.015709144    74705.915    
     86000   0.9432002      0.0023323615  -0.0032183248   21.913588      20.512936      1.4006523      0.013730309    75154.173    
     87000   0.95566008     0.0023323615  -0.00049614223  21.91653       20.497375      1.4191552      0.0035862035   74265.63     
     88000   0.93373351     0.0023323615  -0.00097093893  21.870485      20.483891      1.3865943      0.0018212145   74062.893    
     89000   0.9684944      0.0023323615  -0.00047342045  21.973429      20.535215      1.4382142      0.00087524744  74241.442    
     90000   0.98293324     0.0023323615  -0.0032204602   22.050919      20.591263      1.4596559      0.015353933    75651.789    
     91000   1.0832827      0.0023323615   0.0048517083   22.11977       20.511095      1.6086749      0.0052867789   76415.093    
     92000   0.85899662     0.0023323615  -0.0013049519   21.765697      20.490087      1.27561        0.0024124001   75447.014    
     93000   0.96176266     0.0023323615  -4.4223672e-05  21.874222      20.446004      1.4282176      0.0045653365   76070.323    
     94000   0.96019503     0.0023323615   0.00024459347  21.944954      20.519064      1.4258896      3.8053462e-05  75512.144    
     95000   0.94702149     0.0023323615  -0.0033658915   21.86315       20.456823      1.4063269      0              76099.435    
     96000   0.91119348     0.0023323615  -0.0013197298   21.825018      20.471896      1.3531223      0.00043282989  74769.491    
     97000   1.0016687      0.0023323615  -0.0019514304   22.013024      20.525546      1.487478       0.0048369955   74280.166    
     98000   1.02143        0.0023323615  -0.0057874974   22.177965      20.661142      1.5168235      0              73365.262    
     99000   1.032786       0.0023323615   0.0018228259   21.975336      20.441649      1.5336871      7.1595851e-05  76396.435    
    100000   1.0594928      0.0023323615   0.0036169719   22.011024      20.437677      1.5733468      0.00032948157  74728.904    
    100362   1.1904942      0.0023323615  -0.00089755607  22.316856      20.548972      1.7678839      0.00063845255  74244.668    
Loop time of 1.34146 on 1 procs for 100000 steps with 100 atoms

Performance: 32203606.731 tau/day, 74545.386 timesteps/s
99.1% CPU use with 1 MPI tasks x 1 OpenMP threads

MPI task timing breakdown:
Section |  min time  |  avg time  |  max time  |%varavg| %total
---------------------------------------------------------------
Pair    | 0.049156   | 0.049156   | 0.049156   |   0.0 |  3.66
Bond    | 0.1293     | 0.1293     | 0.1293     |   0.0 |  9.64
Neigh   | 0.80614    | 0.80614    | 0.80614    |   0.0 | 60.09
Comm    | 0.054875   | 0.054875   | 0.054875   |   0.0 |  4.09
Output  | 0.0010836  | 0.0010836  | 0.0010836  |   0.0 |  0.08
Modify  | 0.26719    | 0.26719    | 0.26719    |   0.0 | 19.92
Other   |            | 0.03371    |            |       |  2.51

Nlocal:            100 ave         100 max         100 min
Histogram: 1 0 0 0 0 0 0 0 0 0
Nghost:             60 ave          60 max          60 min
Histogram: 1 0 0 0 0 0 0 0 0 0
Neighs:             36 ave          36 max          36 min
Histogram: 1 0 0 0 0 0 0 0 0 0

Total # of neighbors = 36
Ave neighs/atom = 0.36
Ave special neighs/atom = 1.98
Neighbor list builds = 9821
Dangerous builds = 8265
unfix           nvtSoft
unfix           rampSoft
reset_timestep  0

write_data      ${outputfile_relaxed}
write_data      5_relaxed.data
System init for write_data ...
Generated 0 of 6 mixed pair_coeff terms from geometric mixing rule
WARNING: Communication cutoff 1.3 is shorter than a bond length based estimate of 1.7550000000000001. This may lead to errors. (src/comm.cpp:727)
WARNING: Not all mixed pair coeffs generated from mixing. Use write_data with 'pair ij' option to store all pair coeffs. (src/write_data.cpp:309)

###########################################################################
# Full LJ with Coulomb
######################################################################

# Cutoffs and parameters:
# - Values: Marcel Verkade's Bachelor Thesis
# - Mapping to atom groups: Patrick Onck's paper
# - 1: aliphatic, 2: aromatic, 3: anion, 4: cation
# pair_style	lj/cut/coul/cut <lj_cut_global> <coul_cut_global>
# pair_coeff	<type_1>  <type_2>  <eps>  <sigma>  <r_cut_lj>  <r_cut_coul>

# Problem: Onck's model is much more complex, and Marcel has no sigma reported
# Using sigma=1 randomly

variable		glob_ljeps equal 1.0
variable		glob_ljsig 	equal 1.0
variable		glob_coulcut equal 10.0
variable		att_ljcut equal 2.50
variable		rep_ljcut equal 1.12

pair_style		lj/cut/coul/cut 						${att_ljcut} 	${glob_coulcut}
pair_style		lj/cut/coul/cut 						2.5 	${glob_coulcut}
pair_style		lj/cut/coul/cut 						2.5 	10
pair_coeff		1 1 	${glob_ljeps} 	${glob_ljsig}	${att_ljcut} 	${glob_coulcut}
pair_coeff		1 1 	1 	${glob_ljsig}	${att_ljcut} 	${glob_coulcut}
pair_coeff		1 1 	1 	1	${att_ljcut} 	${glob_coulcut}
pair_coeff		1 1 	1 	1	2.5 	${glob_coulcut}
pair_coeff		1 1 	1 	1	2.5 	10
pair_coeff		1 2 	${glob_ljeps} 	${glob_ljsig}	${att_ljcut} 	${glob_coulcut}
pair_coeff		1 2 	1 	${glob_ljsig}	${att_ljcut} 	${glob_coulcut}
pair_coeff		1 2 	1 	1	${att_ljcut} 	${glob_coulcut}
pair_coeff		1 2 	1 	1	2.5 	${glob_coulcut}
pair_coeff		1 2 	1 	1	2.5 	10
pair_coeff		1 3 	${glob_ljeps} 	${glob_ljsig}	${rep_ljcut} 	${glob_coulcut}
pair_coeff		1 3 	1 	${glob_ljsig}	${rep_ljcut} 	${glob_coulcut}
pair_coeff		1 3 	1 	1	${rep_ljcut} 	${glob_coulcut}
pair_coeff		1 3 	1 	1	1.12 	${glob_coulcut}
pair_coeff		1 3 	1 	1	1.12 	10
pair_coeff		1 4 	${glob_ljeps} 	${glob_ljsig}	${rep_ljcut} 	${glob_coulcut}
pair_coeff		1 4 	1 	${glob_ljsig}	${rep_ljcut} 	${glob_coulcut}
pair_coeff		1 4 	1 	1	${rep_ljcut} 	${glob_coulcut}
pair_coeff		1 4 	1 	1	1.12 	${glob_coulcut}
pair_coeff		1 4 	1 	1	1.12 	10
pair_coeff		2 2 	${glob_ljeps} 	${glob_ljsig}	${att_ljcut} 	${glob_coulcut}
pair_coeff		2 2 	1 	${glob_ljsig}	${att_ljcut} 	${glob_coulcut}
pair_coeff		2 2 	1 	1	${att_ljcut} 	${glob_coulcut}
pair_coeff		2 2 	1 	1	2.5 	${glob_coulcut}
pair_coeff		2 2 	1 	1	2.5 	10
pair_coeff		2 3 	${glob_ljeps} 	${glob_ljsig}	${rep_ljcut} 	${glob_coulcut}
pair_coeff		2 3 	1 	${glob_ljsig}	${rep_ljcut} 	${glob_coulcut}
pair_coeff		2 3 	1 	1	${rep_ljcut} 	${glob_coulcut}
pair_coeff		2 3 	1 	1	1.12 	${glob_coulcut}
pair_coeff		2 3 	1 	1	1.12 	10
pair_coeff		2 4 	${glob_ljeps} 	${glob_ljsig}	${att_ljcut} 	${glob_coulcut}
pair_coeff		2 4 	1 	${glob_ljsig}	${att_ljcut} 	${glob_coulcut}
pair_coeff		2 4 	1 	1	${att_ljcut} 	${glob_coulcut}
pair_coeff		2 4 	1 	1	2.5 	${glob_coulcut}
pair_coeff		2 4 	1 	1	2.5 	10
pair_coeff		3 3 	${glob_ljeps} 	${glob_ljsig}	${rep_ljcut} 	${glob_coulcut}
pair_coeff		3 3 	1 	${glob_ljsig}	${rep_ljcut} 	${glob_coulcut}
pair_coeff		3 3 	1 	1	${rep_ljcut} 	${glob_coulcut}
pair_coeff		3 3 	1 	1	1.12 	${glob_coulcut}
pair_coeff		3 3 	1 	1	1.12 	10
pair_coeff		3 4 	${glob_ljeps} 	${glob_ljsig}	${att_ljcut} 	${glob_coulcut}
pair_coeff		3 4 	1 	${glob_ljsig}	${att_ljcut} 	${glob_coulcut}
pair_coeff		3 4 	1 	1	${att_ljcut} 	${glob_coulcut}
pair_coeff		3 4 	1 	1	2.5 	${glob_coulcut}
pair_coeff		3 4 	1 	1	2.5 	10
pair_coeff		4 4 	${glob_ljeps} 	${glob_ljsig}	${rep_ljcut} 	${glob_coulcut}
pair_coeff		4 4 	1 	${glob_ljsig}	${rep_ljcut} 	${glob_coulcut}
pair_coeff		4 4 	1 	1	${rep_ljcut} 	${glob_coulcut}
pair_coeff		4 4 	1 	1	1.12 	${glob_coulcut}
pair_coeff		4 4 	1 	1	1.12 	10


fix             noDriftRot 	all momentum 10 linear 1 1 1 angular
fix             nvt1 		all nvt temp ${Temp} ${Temp} 0.5
fix             nvt1 		all nvt temp 1 ${Temp} 0.5
fix             nvt1 		all nvt temp 1 1 0.5

# dump          assemble 	all custom 1000 				${outputfile_selfasb} id type xu yu zu vx vy vz
dump            lindump 	all custom ${subsample_rate} 	${outputfile_trajlin} id type xu yu zu vx vy vz
dump            lindump 	all custom 1000 	${outputfile_trajlin} id type xu yu zu vx vy vz
dump            lindump 	all custom 1000 	6_b_trajlin.data id type xu yu zu vx vy vz

run             ${runtime}
run             1000000
Generated 0 of 6 mixed pair_coeff terms from geometric mixing rule
Neighbor list info ...
  update every 1 steps, delay 10 steps, check yes
  max neighbors/atom: 2000, page size: 100000
  master list distance cutoff = 10.3
  ghost atom cutoff = 10.3
  binsize = 5.15, bins = 7 7 7
  1 neighbor lists, perpetual/occasional/extra = 1 0 0
  (1) pair lj/cut/coul/cut, perpetual
      attributes: half, newton on
      pair build: half/bin/newton
      stencil: half/bin/3d
      bin: standard
Per MPI rank memory allocation (min/avg/max) = 7.712 | 7.712 | 7.712 Mbytes
   Step          Temp         Density         Press          TotEng         PotEng         KinEng         E_pair         S/CPU     
         0   1.1904942      0.0023323615  -0.0015912671   21.870228      20.102344      1.7678839     -0.4459899      0            
      1000   0.9556629      0.0023323615  -0.0012804474   21.008027      19.588868      1.4191594     -0.81812216     32942.279    
      2000   0.9019958      0.0023323615   0.00018590269  20.848989      19.509525      1.3394638     -0.92827944     30618.432    
      3000   0.99114221     0.0023323615   0.0023299884   21.043684      19.571838      1.4718462     -1.0135692      28170.128    
      4000   1.0057209      0.0023323615  -0.0031570351   20.486347      18.992852      1.4934955     -1.4286228      21102.912    
      5000   1.177628       0.0023323615   0.0026931541   20.634266      18.885488      1.7487776     -1.6998724      18428.274    
      6000   1.0140192      0.0023323615  -0.0052441761   20.314374      18.808555      1.5058186     -1.6641788      18022.207    
      7000   1.0458649      0.0023323615   0.0016757521   20.374336      18.821226      1.5531094     -1.7182738      18307.541    
      8000   1.0601673      0.0023323615  -0.00282679     20.577514      19.003165      1.5743484     -1.4941081      18270.574    
      9000   1.0078819      0.0023323615   0.0016377743   20.417226      18.920522      1.4967047     -1.6814892      18348.175    
     10000   1.1022505      0.0023323615   0.0012038625   20.628739      18.991897      1.636842      -1.6268913      18225.719    
     11000   0.92138004     0.0023323615  -0.0032893795   19.909714      18.541465      1.3682494     -1.9812929      18090.915    
     12000   1.1380383      0.0023323615  -0.0021746863   20.346437      18.65645       1.6899869     -1.8719979      18111.75     
     13000   0.98910061     0.0023323615  -0.00083246975  20.121248      18.652433      1.4688144     -1.7895902      18060.783    
     14000   0.95117826     0.0023323615  -0.0041525629   20.083149      18.670649      1.4124997     -1.7788233      18298.543    
     15000   0.97306002     0.0023323615  -0.0024109783   20.595605      19.150611      1.4449941     -1.5079828      18249.405    
     16000   0.90327641     0.0023323615   0.00078384825  20.340394      18.999028      1.3413655     -1.6523124      18213.301    
     17000   0.97034103     0.0023323615  -0.0012817239   20.091006      18.650049      1.4409564     -1.8491329      18209.729    
     18000   0.99658773     0.0023323615  -0.0014324861   20.065567      18.585634      1.4799328     -1.8696307      18121.954    
     19000   1.0544903      0.0023323615  -0.0030344699   20.48416       18.918241      1.5659182     -1.4794398      18042.053    
     20000   1.0513746      0.0023323615   0.0019122377   20.359621      18.79833       1.5612912     -1.8218833      18071.433    
     21000   0.96501877     0.0023323615   0.0030939869   20.030263      18.59721       1.4330529     -1.8262167      18033.008    
     22000   0.99134511     0.0023323615   0.00069606084  20.571572      19.099424      1.4721475     -1.4587542      18266.171    
     23000   1.0105691      0.0023323615   0.0031381804   20.397175      18.89648       1.5006951     -1.6233869      18256.085    
     24000   0.85178742     0.0023323615   0.00071073001  20.11077       18.845866      1.2649043     -1.6366961      18082.685    
     25000   1.0891277      0.0023323615  -0.0026541699   20.279869      18.662514      1.6173547     -1.8535948      18081.31     
     26000   1.0504142      0.0023323615   0.0017264919   20.043656      18.483791      1.559865      -1.9272273      18032.291    
     27000   0.89603673     0.0023323615   0.00015085597  20.36939       19.038775      1.3306145     -1.5593594      18197.163    
     28000   1.032756       0.0023323615  -0.00098090484  20.380247      18.846604      1.5336427     -1.7561173      18173.732    
     29000   0.94519437     0.0023323615  -0.0032966052   20.094148      18.690535      1.4036136     -1.7910121      18098.903    
     30000   0.94497033     0.0023323615   0.0030215033   20.081154      18.677873      1.4032809     -1.8167522      18002.577    
     31000   1.001172       0.0023323615  -0.00028598668  20.255765      18.769025      1.4867405     -1.7264317      18086.512    
     32000   0.96719424     0.0023323615  -0.0028693016   20.214641      18.778357      1.4362834     -1.7391822      18044.17     
     33000   0.97715198     0.0023323615  -0.00022321002  20.168374      18.717303      1.4510707     -1.8183945      18110.094    
     34000   1.1807915      0.0023323615   0.001362772    20.217192      18.463717      1.7534753     -1.9963386      18014.954    
     35000   0.87825037     0.0023323615  -0.0034045984   20.017393      18.713191      1.3042018     -1.8190312      18096.849    
     36000   1.0205718      0.0023323615  -0.0027685852   20.067897      18.552348      1.5155492     -1.8598148      18162.878    
     37000   0.95353242     0.0023323615   0.0010998208   19.995621      18.579626      1.4159956     -1.840052       18173.801    
     38000   1.0539576      0.0023323615  -0.001177418    20.118273      18.553146      1.5651271     -2.0439366      18114.061    
     39000   1.1331995      0.0023323615   0.00026507822  20.291936      18.609135      1.6828012     -1.8397108      17988.279    
     40000   0.92749182     0.0023323615  -0.0012783644   20.11826       18.740935      1.3773254     -1.8151416      17989.904    
     41000   1.1098648      0.0023323615   0.0038142139   20.213237      18.565088      1.6481492     -1.8965526      18064.002    
     42000   1.0438097      0.0023323615  -0.0011113291   20.492282      18.942224      1.5500575     -1.6788613      18102.773    
     43000   0.90845845     0.0023323615   0.0014761098   20.058275      18.709214      1.3490608     -1.832609       17880.413    
     44000   0.97359696     0.0023323615  -0.001916238    20.489391      19.043599      1.4457915     -1.5738781      17974.46     
     45000   0.95817235     0.0023323615  -0.00093837179  20.191054      18.768168      1.4228859     -1.7447791      18147.103    
     46000   1.0764815      0.0023323615   0.00078002802  20.451854      18.853279      1.5985751     -1.7748907      18186.924    
     47000   0.97755623     0.0023323615  -0.00034810885  20.274933      18.823262      1.451671      -1.6137612      18162.957    
     48000   1.0585127      0.0023323615   0.0037238259   20.579749      19.007857      1.5718913     -1.4570098      18249.352    
     49000   0.99313732     0.0023323615   0.0058929738   20.433983      18.959174      1.4748089     -1.6185163      18150.03     
     50000   1.0332396      0.0023323615   0.0012298673   20.321464      18.787103      1.5343609     -1.6833487      18017.481    
     51000   1.0251938      0.0023323615   0.00078335951  20.509985      18.987572      1.5224128     -1.7333286      18103.518    
     52000   1.0849293      0.0023323615  -0.0059907198   20.663581      19.052461      1.6111201     -1.6230864      18151.664    
     53000   1.0954014      0.0023323615  -0.0012467938   20.465698      18.839027      1.6266712     -1.8400158      18207.334    
     54000   1.0223299      0.0023323615  -0.0028542964   19.939676      18.421516      1.51816       -2.0163088      18293.784    
     55000   0.81794856     0.0023323615  -0.0042476526   19.716059      18.501405      1.2146536     -2.0359868      18233.803    
     56000   0.99486415     0.0023323615  -0.0013404774   20.180018      18.702645      1.4773733     -1.7339398      18236.199    
     57000   0.86747849     0.0023323615   0.0002887902   20.078801      18.790595      1.2882056     -1.6107616      18275.348    
     58000   0.96233464     0.0023323615  -0.0031892187   20.117098      18.688031      1.4290669     -1.7628268      18186.341    
     59000   0.88279208     0.0023323615  -0.0025924863   19.87005       18.559104      1.3109462     -1.9745487      18233.187    
     60000   1.1081905      0.0023323615   0.0036295832   20.240324      18.594661      1.6456629     -1.8815852      18123.711    
     61000   1.1410876      0.0023323615   0.0024071828   20.455825      18.76131       1.6945151     -1.7405726      18139.307    
     62000   1.035862       0.0023323615  -0.0028618052   20.081707      18.543452      1.5382551     -1.8840473      18075.635    
     63000   1.0851891      0.0023323615  -0.00017511704  20.363894      18.752388      1.6115058     -1.6810159      18243.915    
     64000   1.0049682      0.0023323615  -0.00080021773  20.237596      18.745218      1.4923777     -1.7564832      18260.366    
     65000   1.1253646      0.0023323615   0.0036519865   20.266427      18.595261      1.6711664     -1.9021534      18124.86     
     66000   1.0791334      0.0023323615   0.0028900641   20.466229      18.863716      1.6025132     -1.7082794      18127.892    
     67000   1.0528933      0.0023323615   0.001655958    20.266269      18.702722      1.5635466     -1.7575019      18139.188    
     68000   1.0486857      0.0023323615  -0.001629154    20.349577      18.792278      1.5572982     -1.7347486      18142.792    
     69000   1.0690325      0.0023323615   3.5288836e-06  20.403656      18.816143      1.5875132     -1.6120232      18143.673    
     70000   0.94597848     0.0023323615  -0.0006999351   20.074439      18.669661      1.404778      -1.7848892      18127.503    
     71000   1.0217178      0.0023323615   0.0011447333   20.410565      18.893314      1.5172509     -1.6433049      18246.77     
     72000   1.0210311      0.0023323615   0.0063240161   20.457319      18.941088      1.5162312     -1.5015709      18302.777    
     73000   0.97716586     0.0023323615   0.0010897234   20.15008       18.698989      1.4510913     -1.8032119      18211.546    
     74000   1.0577728      0.0023323615  -0.0021301005   20.50695       18.936157      1.5707926     -1.4954603      18115.856    
     75000   1.1337366      0.0023323615  -0.0031311948   20.320358      18.636759      1.6835989     -1.7875089      18138.809    
     76000   0.82051829     0.0023323615  -7.8034336e-05  19.973612      18.755143      1.2184697     -1.7360671      18078.293    
     77000   1.0385283      0.0023323615   0.0023325233   20.571448      19.029233      1.5422146     -1.6103016      18057.747    
     78000   1.1478496      0.0023323615   0.0034733493   20.920769      19.216213      1.7045566     -1.3443214      18253.273    
     79000   1.0331855      0.0023323615   0.0023370331   20.552649      19.018368      1.5342805     -1.5534148      18266.779    
     80000   0.92418788     0.0023323615  -0.00091879868  20.395178      19.022759      1.372419      -1.4605282      18278.976    
     81000   0.95225278     0.0023323615   0.0011555838   20.490713      19.076618      1.4140954     -1.480321       18281.671    
     82000   1.0061337      0.0023323615   0.00087859555  20.463346      18.969237      1.4941085     -1.5208913      18265.292    
     83000   0.86078725     0.0023323615  -0.00097545988  20.010071      18.731801      1.2782691     -1.6711101      18236.671    
     84000   1.1215583      0.0023323615  -0.0011201313   20.765938      19.100423      1.665514      -1.4972396      18280.844    
     85000   0.92875493     0.0023323615   0.00036634015  20.075207      18.696005      1.3792011     -1.9114301      18070.621    
     86000   1.0063549      0.0023323615   0.00047887299  20.078614      18.584177      1.494437      -1.9180216      18018.063    
     87000   0.9284088      0.0023323615  -0.0022177327   20.176079      18.797392      1.3786871     -1.689338       18033.787    
     88000   1.0458898      0.0023323615  -0.00026831671  20.486469      18.933322      1.5531463     -1.6631826      18198.152    
     89000   0.94355062     0.0023323615  -0.001316917    20.09131       18.690137      1.4011727     -1.8187758      18108.468    
     90000   0.96314287     0.0023323615  -0.0029947322   19.971912      18.541645      1.4302672     -1.8915243      18030.304    
     91000   1.0255064      0.0023323615   0.0040716338   20.201707      18.67883       1.5228771     -1.8623834      18145.711    
     92000   1.1385612      0.0023323615  -0.0044635599   20.441436      18.750673      1.6907633     -1.8174743      18128.01     
     93000   0.97310968     0.0023323615   0.00045848602  20.129934      18.684867      1.4450679     -1.7209285      18229.284    
     94000   0.98482623     0.0023323615  -0.00081252524  20.207131      18.744664      1.4624669     -1.8466748      18186.885    
     95000   0.98080461     0.0023323615  -0.0028873946   20.268799      18.812304      1.4564948     -1.6984205      18279.404    
     96000   1.0200186      0.0023323615  -0.0017504538   20.324828      18.810101      1.5147277     -1.8831505      18198.494    
     97000   0.89453422     0.0023323615  -0.00022178548  20.216563      18.88818       1.3283833     -1.6483788      18150.684    
     98000   1.0423041      0.0023323615   0.00059641599  20.405769      18.857948      1.5478216     -1.7356066      18206.374    
     99000   0.89026282     0.0023323615  -0.00070488224  20.116186      18.794145      1.3220403     -1.7487165      18113.818    
    100000   0.92568094     0.0023323615  -0.00099416313  20.063663      18.689027      1.3746362     -1.8591533      18079.76     
    101000   0.95692902     0.0023323615   0.00099170411  20.574192      19.153152      1.4210396     -1.3836485      18114.972    
    102000   1.0157619      0.0023323615  -0.0033241298   20.293337      18.78493       1.5084064     -1.8376112      17987.764    
    103000   0.9952297      0.0023323615  -0.0050960601   20.403939      18.926023      1.4779161     -1.5517375      18102.789    
    104000   0.87400634     0.0023323615  -0.00038747609  20.024716      18.726816      1.2978994     -1.6942066      18113.453    
    105000   0.94391563     0.0023323615   0.0011044831   20.305207      18.903492      1.4017147     -1.7338553      18046.363    
    106000   0.95209106     0.0023323615  -0.0026154547   20.227102      18.813246      1.4138552     -1.7631888      18135.428    
    107000   1.058487       0.0023323615   0.0017693199   20.508172      18.936319      1.5718531     -1.6073156      18243.928    
    108000   1.0547797      0.0023323615  -0.0036865016   20.34275       18.776403      1.5663479     -1.7779837      18092.837    
    109000   0.95944019     0.0023323615   0.0026858328   20.151754      18.726986      1.4247687     -1.844094       18107.634    
    110000   0.95855411     0.0023323615   0.0014672787   20.27477       18.851317      1.4234529     -1.7006631      18152.839    
    111000   1.0082179      0.0023323615  -0.001160276    20.378353      18.881149      1.4972035     -1.6585302      18196.891    
    112000   1.0215186      0.0023323615  -4.6057895e-05  20.269647      18.752692      1.5169552     -1.758013       18230.549    
    113000   0.9477819      0.0023323615  -0.002400411    20.303475      18.896019      1.4074561     -1.6322395      18150.988    
    114000   1.0715581      0.0023323615  -0.00059566509  20.317815      18.726551      1.5912638     -1.757208       18166.775    
    115000   0.98535235     0.0023323615   0.0055887028   20.316269      18.853021      1.4632482     -1.6610327      18068.636    
    116000   0.99936585     0.0023323615  -0.0018417692   20.206146      18.722088      1.4840583     -1.8260757      18051.434    
    117000   0.91973606     0.0023323615  -0.00096307263  19.98307       18.617261      1.365808      -1.895478       17915.774    
    118000   1.0080043      0.0023323615   0.0049291286   20.35486       18.857974      1.4968864     -1.6573515      18035.791    
    119000   0.89287994     0.0023323615   0.0040637698   20.060311      18.734384      1.3259267     -1.7075317      17941.221    
    120000   1.0745133      0.0023323615  -0.00079795295  20.61771       19.022057      1.5956523     -1.6147669      18102.894    
    121000   1.0579601      0.0023323615   0.0042040192   20.364044      18.792973      1.5710708     -1.7704114      18092.991    
    122000   1.0720555      0.0023323615   0.00027753143  20.240332      18.64833       1.5920024     -1.8397759      18179.518    
    123000   0.96644294     0.0023323615  -0.0027856608   20.183687      18.748519      1.4351678     -1.7539231      18142.977    
    124000   1.2314286      0.0023323615   0.00058808091  20.578239      18.749568      1.8286715     -1.7479456      18073.399    
    125000   0.83403962     0.0023323615  -0.0030860321   19.999981      18.761433      1.2385488     -1.798705       18044.6      
    126000   1.0018081      0.0023323615  -0.00052076934  19.987708      18.500023      1.487685      -1.9371356      18045.315    
    127000   1.0203878      0.0023323615  -0.0031165121   20.272109      18.756833      1.5152759     -1.7892643      18119.392    
    128000   0.97699718     0.0023323615  -0.001679263    20.254191      18.80335       1.4508408     -1.7555629      18034.696    
    129000   0.92901884     0.0023323615  -0.0010751253   20.238934      18.859341      1.379593      -1.7149459      18116.487    
    130000   0.99914493     0.0023323615  -0.0030538175   20.146058      18.662328      1.4837302     -1.8920137      17978.371    
    131000   0.97104481     0.0023323615   0.00058590527  19.897771      18.455769      1.4420016     -1.999135       17947.354    
    132000   0.88141728     0.0023323615   0.0024463409   20.154648      18.845743      1.3089047     -1.7347811      18100.685    
    133000   1.0981752      0.0023323615   0.00082493222  20.070774      18.439984      1.6307902     -2.0609954      18226.522    
    134000   0.94045647     0.0023323615  -0.0039007944   20.041104      18.644526      1.3965779     -1.7715366      18065.434    
    135000   1.1134217      0.0023323615   0.0011308514   20.263112      18.60968       1.6534312     -1.9534453      18202.961    
    136000   1.0356791      0.0023323615   0.0024559749   20.086461      18.548477      1.5379834     -1.9940439      18247.367    
    137000   0.97191155     0.0023323615   0.0024912794   20.112654      18.669365      1.4432887     -1.893029       18069.611    
    138000   0.98271539     0.0023323615  -0.0014054378   20.216879      18.757546      1.4593324     -1.7498846      17974.946    
    139000   0.89342001     0.0023323615  -1.7354816e-05  19.94502       18.618292      1.3267287     -1.836741       17921.738    
    140000   1.0903868      0.0023323615   5.7276745e-05  20.512814      18.89359       1.6192244     -1.6331192      17981.824    
    141000   0.93272775     0.0023323615  -0.0020322857   20.301361      18.916261      1.3851007     -1.5472576      18142.403    
    142000   1.0539663      0.0023323615   0.0018991364   20.284696      18.719556      1.56514       -1.7698666      17952.825    
    143000   0.95061551     0.0023323615   0.00021348761  20.245343      18.833679      1.411664      -1.7719483      17998.091    
    144000   1.1190672      0.0023323615   0.0015478809   20.279507      18.617692      1.6618148     -1.8297093      18155.075    
    145000   1.1216391      0.0023323615  -0.0008918977   20.264914      18.59928       1.6656341     -1.7873948      17976.137    
    146000   0.95104197     0.0023323615  -0.0014724738   20.140618      18.728321      1.4122973     -1.7920853      17953.329    
    147000   1.0388986      0.0023323615  -2.4596334e-05  20.500458      18.957694      1.5427644     -1.5243396      18074.935    
    148000   0.92708625     0.0023323615  -0.0026888201   20.115436      18.738713      1.3767231     -1.7359921      18749.477    
    149000   0.95351911     0.0023323615  -0.00093357788  20.345307      18.929331      1.4159759     -1.5817578      19027.216    
    150000   1.0188147      0.0023323615   0.00071988884  20.277526      18.764586      1.5129399     -1.6432979      18661.695    
    151000   1.063446       0.0023323615  -0.0053446533   20.263559      18.684342      1.5792173     -1.8084663      18213.66     
    152000   0.91708195     0.0023323615   0.0020546828   19.80353       18.441664      1.3618667     -2.0366074      18043.603    
    153000   1.0395434      0.0023323615   0.001843911    20.015165      18.471443      1.543722      -1.9086543      18153.189    
    154000   0.85019195     0.0023323615  -0.0054325917   20.153411      18.890876      1.262535      -1.776995       18219.92     
    155000   1.0412183      0.0023323615   0.0089568099   20.227331      18.681122      1.5462091     -1.8505622      18174.79     
    156000   1.0273745      0.0023323615   0.00024685881  20.164414      18.638763      1.5256511     -1.9193676      18194.45     
    157000   0.96419757     0.0023323615  -0.00058142382  20.161563      18.72973       1.4318334     -1.8233         18218.344    
    158000   0.89270883     0.0023323615  -0.0023277575   20.080243      18.75457       1.3256726     -1.7843789      18091.066    
    159000   0.82369931     0.0023323615  -7.8995485e-05  20.242711      19.019518      1.2231935     -1.475102       18279.043    
    160000   1.1022206      0.0023323615   0.0019468939   20.839622      19.202825      1.6367977     -1.2295676      18368.718    
    161000   1.1441889      0.0023323615   0.0032837605   20.508059      18.808938      1.6991205     -1.6909068      18389.809    
    162000   0.99400071     0.0023323615   0.0019807791   20.018182      18.542091      1.476091      -1.8954124      18410.029    
    163000   0.89846325     0.0023323615   0.0015418432   20.143228      18.80901       1.3342179     -1.6971792      18354.541    
    164000   0.98887498     0.0023323615  -0.0026979774   20.27476       18.806281      1.4684793     -1.7598617      18250.036    
    165000   0.95539037     0.0023323615  -0.00097022141  20.054182      18.635427      1.4187547     -1.752407       18126.124    
    166000   1.0747065      0.0023323615   0.0050226417   20.370288      18.774348      1.5959392     -1.7099654      18052.459    
    167000   1.152366       0.0023323615   0.0016360492   20.363618      18.652354      1.7112635     -1.8700528      18100.091    
    168000   1.0420385      0.0023323615   0.0047217664   20.679705      19.132278      1.5474272     -1.3430773      18384.071    
    169000   1.0891205      0.0023323615   0.0004961993   20.833822      19.216478      1.617344      -1.3795663      18306.789    
    170000   1.0560427      0.0023323615  -0.0025729941   20.413295      18.845072      1.5682234     -1.586095       18173.973    
    171000   0.95481627     0.0023323615  -0.0047615191   20.191352      18.77345       1.4179022     -1.7318409      18094.372    
    172000   0.88389404     0.0023323615  -0.00032122757  20.020001      18.707418      1.3125827     -1.7880017      18109.683    
    173000   0.93188354     0.0023323615  -0.0027872191   20.326507      18.94266       1.3838471     -1.6360078      17999.442    
    174000   0.90322429     0.0023323615  -0.00070550666  20.408216      19.066928      1.3412881     -1.6044247      18050.922    
    175000   0.9979314      0.0023323615   0.0020582621   20.324929      18.843001      1.4819281     -1.7120067      18082.849    
    176000   1.0088146      0.0023323615   0.0060837872   20.175069      18.676979      1.4980898     -1.9236717      17963.766    
    177000   1.1362181      0.0023323615  -0.00057660421  20.587967      18.900683      1.6872838     -1.6120223      18006.059    
    178000   0.98715111     0.0023323615  -0.0021590959   20.332226      18.866306      1.4659194     -1.595069       18144.718    
    179000   0.95543405     0.0023323615   0.0023874523   20.331836      18.913017      1.4188196     -1.6151854      18097.597    
    180000   0.92723957     0.0023323615   0.00061459314  20.038753      18.661802      1.3769508     -1.9465599      18028.614    
    181000   0.94964427     0.0023323615  -0.00027759137  20.054819      18.644598      1.4102217     -1.9735449      17896.256    
    182000   1.0393687      0.0023323615   0.0030051283   20.442307      18.898845      1.5434625     -1.7982165      18048.056    
    183000   0.97720234     0.0023323615   0.0014169287   20.223126      18.771981      1.4511455     -1.8096204      17982.313    
    184000   1.0189953      0.0023323615   0.0025352738   20.050427      18.537219      1.5132081     -1.9122965      17932.005    
    185000   0.99781095     0.0023323615  -0.0023581034   20.230123      18.748373      1.4817493     -1.6443046      18041.636    
    186000   1.0529154      0.0023323615  -0.001456712    20.401036      18.837456      1.5635794     -1.6910216      18156.607    
    187000   1.1749524      0.0023323615  -0.0031098846   20.545427      18.800623      1.7448042     -1.712708       18094.142    
    188000   0.85694064     0.0023323615  -0.00032333528  20.147642      18.875085      1.2725568     -1.6380807      18166.57     
    189000   0.8883586      0.0023323615   0.0046207847   20.035097      18.715884      1.3192125     -1.7726411      18193.429    
    190000   1.0767586      0.0023323615  -0.0010585087   20.349846      18.75086       1.5989866     -1.7273238      18200.422    
    191000   1.168776       0.0023323615  -0.0007598671   20.440678      18.705045      1.7356323     -1.851157       18076.817    
    192000   0.97511906     0.0023323615  -0.0049198995   20.343844      18.895793      1.4480518     -1.7384037      18117.727    
    193000   0.94451472     0.0023323615  -0.0023168981   20.157028      18.754423      1.4026044     -1.831596       18126.348    
    194000   0.99652926     0.0023323615   0.0050915651   20.071708      18.591862      1.479846      -1.8949523      18187.372    
    195000   0.97600577     0.0023323615   0.00040205457  20.285698      18.83633       1.4493686     -1.6989864      18220.922    
    196000   0.99579778     0.0023323615   0.0052304601   20.380537      18.901777      1.4787597     -1.7534613      18271.635    
    197000   0.95111399     0.0023323615  -0.00066432375  20.333967      18.921563      1.4124043     -1.5544079      18247.62     
    198000   1.0418268      0.0023323615  -0.0012433334   20.880599      19.333486      1.5471128     -1.4764692      18284.564    
    199000   0.99614075     0.0023323615  -0.0031155511   20.248378      18.769109      1.479269      -1.8373032      18223.53     
    200000   0.94716324     0.0023323615  -0.0025835825   20.199244      18.792706      1.4065374     -1.8384828      18215.099    
    201000   1.1167494      0.0023323615   0.0018719085   20.287328      18.628955      1.6583728     -1.8927652      18163.265    
    202000   0.99294069     0.0023323615  -0.00072398595  20.292881      18.818364      1.4745169     -1.5765036      18405.221    
    203000   0.9546327      0.0023323615  -0.0009478377   20.697584      19.279955      1.4176296     -1.4605853      18991.502    
    204000   0.98841614     0.0023323615   5.8327032e-05  20.307521      18.839723      1.467798      -1.6656423      18577.78     
    205000   1.1631178      0.0023323615   0.0021629379   20.407007      18.679777      1.72723       -1.869402       18140.055    
    206000   0.9028263      0.0023323615  -0.0047167408   20.323857      18.98316       1.3406971     -1.5874925      18158.959    
    207000   1.0014044      0.0023323615   0.0011839677   20.525193      19.038108      1.4870856     -1.4475943      18298.154    
    208000   0.96757797     0.0023323615  -0.0056815242   20.308492      18.871639      1.4368533     -1.6950973      18250.433    
    209000   0.99119477     0.0023323615   0.0018142809   20.282934      18.81101       1.4719242     -1.6060911      18257.106    
    210000   1.0797159      0.0023323615  -0.0038980216   20.201049      18.597671      1.6033781     -1.8656284      18202.078    
    211000   0.89230138     0.0023323615  -0.0022271269   20.289646      18.964579      1.3250675     -1.5905033      18209.938    
    212000   0.80771182     0.0023323615   0.0019792875   19.977738      18.778286      1.1994521     -1.7038909      18320.69     
    213000   0.92901953     0.0023323615   0.00082454883  20.182122      18.802528      1.379594      -1.5667704      18227.856    
    214000   1.107497       0.0023323615  -0.0016261389   20.474067      18.829434      1.6446331     -1.6445229      18200.9      
    215000   1.0011021      0.0023323615   0.00029860722  20.578661      19.092025      1.4866367     -1.3631361      18169.593    
    216000   1.0317126      0.0023323615  -0.0033881576   20.785898      19.253805      1.5320932     -1.3137227      18781.501    
    217000   0.87531563     0.0023323615   0.0023846367   20.376582      19.076738      1.2998437     -1.4871812      18709.001    
    218000   0.91992601     0.0023323615   0.0041892664   20.319624      18.953534      1.3660901     -1.4866845      18322.214    
    219000   1.1951348      0.0023323615   0.00083822725  20.630618      18.855843      1.7747752     -1.650562       18041.137    
    220000   0.85529941     0.0023323615  -0.0011641092   20.402118      19.131999      1.2701196     -1.5350707      18068.257    
    221000   0.98584622     0.0023323615   0.003870533    20.140714      18.676733      1.4639816     -1.8515997      18017.474    
    222000   1.0793994      0.0023323615   0.0018832612   20.2578        18.654892      1.6029081     -1.8481576      17991.308    
    223000   0.90642888     0.0023323615   0.00050908256  20.032491      18.686444      1.3460469     -1.819128       18160.168    
    224000   0.77807725     0.0023323615  -0.00063306581  20.045618      18.890173      1.1554447     -1.6365842      18181.333    
    225000   1.022174       0.0023323615  -0.0028703738   20.268824      18.750895      1.5179284     -1.8579851      18144.421    
    226000   0.95279795     0.0023323615  -0.0049395739   20.197568      18.782663      1.414905      -1.6794731      18230.164    
    227000   0.81345422     0.0023323615  -0.00034936076  20.146638      18.938658      1.2079795     -1.5346564      18240.044    
    228000   0.96332817     0.0023323615   0.001104611    20.187237      18.756695      1.4305423     -1.7076416      18156.247    
    229000   1.0518715      0.0023323615   0.003825024    20.502718      18.940689      1.5620292     -1.6763475      18206.557    
    230000   0.8690795      0.0023323615   0.0028151611   20.306561      19.015978      1.2905831     -1.5612643      18106.359    
    231000   0.8848724      0.0023323615  -0.0011770439   20.214418      18.900383      1.3140355     -1.4965672      18208.427    
    232000   0.95756938     0.0023323615   0.0012332143   20.336146      18.914155      1.4219905     -1.6579885      18043.126    
    233000   1.0597797      0.0023323615  -0.0040191382   20.349764      18.775992      1.5737729     -1.7372086      18203.884    
    234000   0.86828592     0.0023323615   0.0008515341   20.038894      18.749489      1.2894046     -1.7065073      18217.38     
    235000   1.0977063      0.0023323615  -1.8750899e-05  20.402026      18.771932      1.6300939     -1.587948       18220.692    
    236000   0.93395738     0.0023323615  -0.0020192319   20.270311      18.883385      1.3869267     -1.6949542      18345.598    
    237000   1.0588287      0.0023323615  -0.001779595    20.54947       18.977109      1.5723606     -1.6687318      18131.909    
    238000   0.90079381     0.0023323615  -0.0010022083   20.04613       18.708451      1.3376788     -1.7490441      18040.791    
    239000   0.94355264     0.0023323615  -0.002962593    20.233672      18.832496      1.4011757     -1.6656215      18173.861    
    240000   1.0431516      0.0023323615  -0.0027498996   20.37421       18.82513       1.5490802     -1.8418061      18039.637    
    241000   1.0274511      0.0023323615  -0.00059302555  20.302504      18.776739      1.5257649     -1.7725579      18156.072    
    242000   1.0867626      0.0023323615  -0.0012929634   20.447567      18.833725      1.6138425     -1.7044831      18120.24     
    243000   0.84983078     0.0023323615  -0.0011008774   20.132357      18.870358      1.2619987     -1.5564978      18164.478    
    244000   0.89104304     0.0023323615   0.00042597473  19.791545      18.468346      1.3231989     -2.0001528      18170.119    
    245000   0.94572309     0.0023323615   0.0058181853   20.142171      18.737772      1.4043988     -1.9004291      18252.265    
    246000   1.0646368      0.0023323615   0.00044187004  20.426684      18.845699      1.5809857     -1.6829163      18141.437    
    247000   0.81666631     0.0023323615  -0.0040310292   19.799977      18.587227      1.2127495     -1.8051468      18227.839    
    248000   1.0240352      0.0023323615   0.0041980555   20.498158      18.977465      1.5206922     -1.590227       18159.104    
    249000   0.98474193     0.0023323615  -0.0030796211   20.366898      18.904556      1.4623418     -1.5954966      17971.208    
    250000   1.1421904      0.0023323615   0.00038413151  20.432711      18.736559      1.6961528     -1.8390011      18064.499    
    251000   1.0335493      0.0023323615   0.0010283959   20.51219       18.97737       1.5348207     -1.5032038      18020.128    
    252000   0.99379819     0.0023323615  -0.0023508051   20.229728      18.753938      1.4757903     -1.7391135      18176.985    
    253000   0.95203256     0.0023323615   0.0039583431   20.321091      18.907322      1.4137683     -1.5157249      18235.855    
    254000   0.79408446     0.0023323615  -0.0022768698   19.995354      18.816138      1.1792154     -1.6663599      18174.02     
    255000   1.1689495      0.0023323615   0.0021996066   20.564171      18.828281      1.73589       -1.6849795      18228.865    
    256000   0.96175237     0.0023323615   0.00027741035  20.201075      18.772872      1.4282023     -1.7716544      18006.952    
    257000   1.0036395      0.0023323615  -0.0068787957   20.231709      18.741305      1.4904046     -1.7784714      18192.931    
    258000   0.9831083      0.0023323615  -0.00030135323  19.887483      18.427568      1.4599158     -2.0628168      18144.946    
    259000   0.99827528     0.0023323615   0.00024819695  20.243152      18.760713      1.4824388     -1.7188934      18116.793    
    260000   0.88699027     0.0023323615   0.0035761632   19.846164      18.528983      1.3171806     -1.9079697      18093.68     
    261000   1.0348499      0.0023323615  -0.0021335755   20.235252      18.6985        1.5367521     -1.7832725      18083.589    
    262000   1.0618145      0.0023323615   0.00050893338  20.111921      18.535127      1.5767945     -2.0040004      18099.286    
    263000   0.87535532     0.0023323615  -0.00033863544  20.311591      19.011688      1.2999027     -1.54691        18133.342    
    264000   1.1083693      0.0023323615  -0.00027150807  20.658466      19.012538      1.6459283     -1.4463014      18103.958    
    265000   1.0169255      0.0023323615  -0.00092315476  20.245006      18.734872      1.5101344     -1.7544455      18220.203    
    266000   1.000009       0.0023323615   0.0012534554   20.450808      18.965795      1.4850133     -1.7143919      18065.562    
    267000   1.1505387      0.0023323615   0.00088899437  20.324575      18.616025      1.7085499     -1.8904439      17902.94     
    268000   0.9880543      0.0023323615  -0.0017895307   20.196148      18.728887      1.4672606     -1.747701       18055.79     
    269000   1.0060948      0.0023323615   0.00010116533  20.245181      18.75113       1.4940508     -1.8448727      18067.668    
    270000   1.0352993      0.0023323615  -0.00061067354  20.283686      18.746267      1.5374195     -1.7621092      18029.562    
    271000   1.0257281      0.0023323615  -0.0019933746   20.243798      18.720592      1.5232062     -1.7403556      18061.217    
    272000   1.0613829      0.0023323615  -0.00095305647  20.486234      18.910081      1.5761537     -1.5440993      18195.77     
    273000   0.89958189     0.0023323615  -0.0005352459   20.337284      19.001405      1.3358791     -1.5557166      18527.629    
    274000   0.90990379     0.0023323615  -0.001176066    20.62139       19.270182      1.3512071     -1.2253831      18289.949    
    275000   0.85697283     0.0023323615   0.0016741742   20.373847      19.101243      1.2726047     -1.3980969      18278.722    
    276000   1.0534054      0.0023323615   0.0061368407   20.708829      19.144521      1.5643071     -1.5301472      18178.988    
    277000   0.92524872     0.0023323615   0.00022760598  20.391932      19.017937      1.3739943     -1.5199915      18040.325    
    278000   0.95379749     0.0023323615  -0.00324546     20.479267      19.062878      1.4163893     -1.5434078      18048.405    
    279000   1.0364125      0.0023323615  -0.0018224903   20.423256      18.884183      1.5390726     -1.6392055      18099.129    
    280000   0.96384806     0.0023323615   0.00065937723  20.171806      18.740492      1.4313144     -1.7220461      18170.575    
    281000   1.1893133      0.0023323615   0.00016216043  20.519837      18.753707      1.7661303     -1.6582282      18295.068    
    282000   1.0501548      0.0023323615  -0.0035813235   20.185865      18.626385      1.5594799     -1.7997435      18194.851    
    283000   1.0237385      0.0023323615  -0.0046696735   20.092375      18.572124      1.5202517     -1.8885386      18032.803    
    284000   1.0644204      0.0023323615  -0.006419105    20.398469      18.817805      1.5806644     -1.6715483      18128.784    
    285000   1.0020899      0.0023323615   0.0014810479   20.410038      18.921934      1.4881035     -1.6641202      18287.687    
    286000   0.91146743     0.0023323615   0.0029343763   19.99717       18.643641      1.3535291     -1.8242474      18238.438    
    287000   0.85740026     0.0023323615  -0.00025626969  20.157633      18.884394      1.2732394     -1.7514918      18328.663    
    288000   0.94122937     0.0023323615   0.0011551539   20.298427      18.900701      1.3977256     -1.697795       18290.837    
    289000   1.1036838      0.0023323615  -0.0024347189   20.580611      18.941641      1.6389704     -1.4608248      18128.952    
    290000   1.04985        0.0023323615   0.0016939883   20.56832       19.009293      1.5590273     -1.4812488      18281.544    
    291000   1.1688265      0.0023323615  -0.0011026817   20.488636      18.752929      1.7357074     -1.7085659      18442.902    
    292000   0.96631329     0.0023323615  -0.0072225531   20.080958      18.645983      1.4349752     -1.8714697      18348.438    
    293000   0.90983603     0.0023323615  -0.0020472802   20.334037      18.982931      1.3511065     -1.7260926      18238.904    
    294000   0.89301236     0.0023323615  -0.0030845878   20.20927       18.883147      1.3261234     -1.6314951      18401.723    
    295000   0.97039453     0.0023323615  -0.0024984884   20.174485      18.733449      1.4410359     -1.8149032      18596.041    
    296000   1.0242601      0.0023323615   0.0020838524   20.392601      18.871575      1.5210263     -1.7079822      18361.315    
    297000   0.95341146     0.0023323615  -0.00073275299  20.159531      18.743715      1.415816      -1.7786081      18255.861    
    298000   0.97142286     0.0023323615  -0.0013630354   20.264023      18.82146       1.4425629     -1.7275184      18311.625    
    299000   1.0615225      0.0023323615  -0.00062447334  20.679586      19.103226      1.5763609     -1.3823138      18430.224    
    300000   0.97337515     0.0023323615  -0.00096730949  20.276417      18.830954      1.4454621     -1.6175365      18517.699    
    301000   0.94687613     0.0023323615   0.00084468957  20.201853      18.795742      1.4061111     -1.7551021      18322.876    
    302000   1.0143534      0.0023323615   0.0012258887   20.627878      19.121563      1.5063149     -1.4047018      18248.061    
    303000   0.79725637     0.0023323615  -0.0033598628   20.311761      19.127835      1.1839257     -1.5056634      18275.696    
    304000   1.054838       0.0023323615  -0.00052762317  20.358567      18.792132      1.5664344     -1.7263636      18226.495    
    305000   0.96468731     0.0023323615   0.001212122    20.330814      18.898253      1.4325607     -1.5892829      18118.559    
    306000   1.1204247      0.0023323615  -0.00075402654  20.547785      18.883954      1.6638306     -1.5707302      18129.064    
    307000   0.96335248     0.0023323615  -0.00030577946  20.368303      18.937724      1.4305784     -1.5876991      18219.112    
    308000   0.90363315     0.0023323615   0.0029020022   20.261562      18.919667      1.3418952     -1.562869       18160.614    
    309000   1.0443061      0.0023323615   0.00017113024  20.40573       18.854935      1.5507945     -1.7218589      18221.447    
    310000   1.0487722      0.0023323615  -0.00057354379  20.331838      18.774411      1.5574268     -1.7962678      18165.602    
    311000   0.9100006      0.0023323615  -0.00065095929  19.814843      18.463492      1.3513509     -2.0596023      18134.153    
    312000   1.0703771      0.0023323615   0.00080832735  20.300803      18.711293      1.58951       -1.8083082      18131.922    
    313000   1.0072374      0.0023323615  -0.0010026366   20.062952      18.567204      1.4957475     -1.9233267      18103.945    
    314000   1.0807046      0.0023323615   0.0020273384   20.349805      18.744958      1.6048464     -1.8216202      18198.656    
    315000   0.91018573     0.0023323615  -0.00037344287  20.063074      18.711448      1.3516258     -1.898319       18224.445    
    316000   1.0135293      0.0023323615   0.00090159516  20.230393      18.725302      1.5050909     -1.6701291      18288.585    
    317000   1.0876396      0.0023323615  -0.0033228602   20.119015      18.50387       1.6151449     -2.0101669      18157.42     
    318000   0.89922867     0.0023323615  -0.0068004275   20.278188      18.942833      1.3353546     -1.6373935      18156.006    
    319000   1.0567893      0.0023323615  -0.0027800775   20.183647      18.614315      1.569332      -1.8367318      18256.589    
    320000   1.1718615      0.0023323615  -0.0033248058   20.701953      18.961738      1.7402144     -1.4844506      18269.317    
    321000   1.0045833      0.0023323615   0.0022209107   20.40015       18.908344      1.4918063     -1.6500125      18255.911    
    322000   0.88383518     0.0023323615  -0.0048162034   19.95658       18.644085      1.3124952     -1.8390588      18108.806    
    323000   1.0629569      0.0023323615   0.001161843    20.169204      18.590713      1.5784909     -1.882705       18068.946    
    324000   1.1218185      0.0023323615   0.0016604053   20.416016      18.750116      1.6659004     -1.6989197      18171.042    
    325000   0.95867887     0.0023323615   0.00071347054  20.080417      18.656779      1.4236381     -1.760821       18277.379    
    326000   0.91362328     0.0023323615   0.0026761845   20.259278      18.902548      1.3567306     -1.6573952      18592.47     
    327000   0.97345134     0.0023323615  -0.0017324462   20.384719      18.939144      1.4455752     -1.5978721      18352.682    
    328000   1.0307893      0.0023323615  -0.0029470149   20.240988      18.710266      1.5307221     -1.7917947      18085.5      
    329000   0.96021174     0.0023323615  -0.0029790235   20.109579      18.683664      1.4259144     -1.8809546      18078.444    
    330000   0.88624462     0.0023323615   0.0026894488   19.931441      18.615367      1.3160733     -1.8242328      18087.473    
    331000   0.93920157     0.0023323615   0.0015006724   20.126454      18.731739      1.3947143     -1.7593429      17993.877    
    332000   0.98870461     0.0023323615  -0.0010701924   20.472693      19.004466      1.4682263     -1.500848       18117.533    
    333000   1.0029881      0.0023323615  -0.0024862012   20.469919      18.980481      1.4894373     -1.501542       18142.357    
    334000   1.0094341      0.0023323615  -0.0022526881   20.577773      19.078764      1.4990096     -1.6515951      18275.415    
    335000   0.99357549     0.0023323615   0.0018816172   20.233635      18.758175      1.4754596     -1.6941153      18060.515    
    336000   1.0362728      0.0023323615   0.00031517288  20.320651      18.781786      1.5388651     -1.9341747      18116.461    
    337000   1.1343731      0.0023323615  -0.00061052022  20.478532      18.793987      1.6845441     -1.8157394      18101.203    
    338000   1.1021139      0.0023323615   0.0037494795   20.529872      18.893233      1.6366391     -1.7305054      18101.818    
    339000   0.89370143     0.0023323615   0.00044708769  20.324301      18.997154      1.3271466     -1.4613192      18235.092    
    340000   1.0131722      0.0023323615   0.00027546454  20.624132      19.119571      1.5045607     -1.464668       18290.13     
    341000   1.1840737      0.0023323615   0.0035551234   20.645598      18.887249      1.7583495     -1.6347935      18171.409    
    342000   0.97933876     0.0023323615  -0.0017569394   20.077197      18.622879      1.4543181     -1.9037159      17879.775    
    343000   1.0078716      0.0023323615   0.00023543253  20.266663      18.769974      1.4966894     -1.7653102      18097.777    
    344000   0.89028341     0.0023323615   0.0019997463   19.997201      18.67513       1.3220709     -1.8390759      18193.044    
    345000   1.0706263      0.0023323615   0.001856175    20.254367      18.664487      1.5898801     -1.8064452      18023.506    
    346000   1.1006792      0.0023323615  -0.0029943069   20.569925      18.935417      1.6345087     -1.6217052      18049.717    
    347000   1.0325883      0.0023323615   0.00054538992  20.481425      18.948031      1.5333937     -1.4981314      18169.686    
    348000   1.0376773      0.0023323615   0.00042246434  20.240546      18.699595      1.5409508     -1.7712572      18176.843    
    349000   1.0243418      0.0023323615   0.0053897928   20.333324      18.812176      1.5211476     -1.7258755      18108.878    
    350000   1.0659246      0.0023323615   0.0012603406   20.602179      19.019281      1.582898      -1.6098114      18222.715    
    351000   1.014217       0.0023323615  -0.0015510453   20.484251      18.978138      1.5061122     -1.6197828      18256.168    
    352000   1.0480053      0.0023323615   0.00013237592  20.173404      18.617116      1.5562878     -1.8467142      18238.025    
    353000   1.0212679      0.0023323615  -0.0011139057   20.213496      18.696913      1.5165829     -1.776662       18234.389    
    354000   0.81649058     0.0023323615   0.0014312449   20.019663      18.807175      1.2124885     -1.6673254      18366.998    
    355000   0.98734372     0.0023323615  -0.0017902731   20.271202      18.804997      1.4662054     -1.6987044      18243.615    
    356000   1.0998241      0.0023323615  -0.0037187868   20.611332      18.978093      1.6332388     -1.5717004      18143.297    
    357000   0.84553771     0.0023323615  -0.0010742703   19.75557       18.499947      1.2556235     -1.9324642      18245.299    
    358000   1.0682656      0.0023323615  -0.00085948282  20.391772      18.805397      1.5863744     -1.7241511      18054.98     
    359000   0.95375935     0.0023323615  -0.00091322516  20.359244      18.942911      1.4163326     -1.5404274      18348.624    
    360000   0.97554951     0.0023323615  -0.003996151    20.542025      19.093334      1.448691      -1.4515083      18148.449    
    361000   1.0412922      0.0023323615  -0.00091607848  20.417507      18.871188      1.546319      -1.6403394      18196.281    
    362000   1.1089421      0.0023323615  -0.0023662736   20.392251      18.745472      1.646779      -1.7351849      18206.378    
    363000   0.93146601     0.0023323615  -0.0043136727   20.133721      18.750494      1.383227      -1.8205133      18110.534    
    364000   1.0059045      0.0023323615   0.0010485958   20.117093      18.623325      1.4937682     -1.8176493      18164.517    
    365000   1.1225272      0.0023323615  -0.0053553842   20.486987      18.820034      1.666953      -1.6117291      18120.987    
    366000   1.0819005      0.0023323615   0.0035633448   20.491191      18.884568      1.6066223     -1.8635633      18231.046    
    367000   1.0683415      0.0023323615   0.0041441858   20.279293      18.692806      1.5864872     -1.7581032      18182.839    
    368000   0.9948991      0.0023323615  -0.0035414214   20.393424      18.915999      1.4774252     -1.6085119      18398.189    
    369000   0.99184009     0.0023323615   0.0026848714   20.309699      18.836817      1.4728825     -1.6922357      18264.382    
    370000   1.0461137      0.0023323615   0.00029479138  20.575783      19.022305      1.5534788     -1.4698953      18359.727    
    371000   0.79418147     0.0023323615   0.00067169396  20.035693      18.856334      1.1793595     -1.6276291      18359.086    
    372000   0.99512838     0.0023323615  -0.0018210645   20.05434       18.576575      1.4777656     -1.8625239      18318.649    
    373000   1.0759234      0.0023323615  -0.0051257503   20.178812      18.581066      1.5977462     -1.9174596      18315.009    
    374000   1.114641       0.0023323615   0.0019331374   20.502345      18.847103      1.6552418     -1.6752494      18173.023    
    375000   0.94547592     0.0023323615  -0.00043961795  19.971916      18.567884      1.4040317     -1.8133229      17993.513    
    376000   0.9835609      0.0023323615  -0.00047687682  20.458803      18.998215      1.4605879     -1.6060037      18292.258    
    377000   1.0906038      0.0023323615   0.0062399526   20.619503      18.999956      1.6195467     -1.6149833      18424.805    
    378000   0.95394657     0.0023323615  -0.0034145583   20.593853      19.177242      1.4166107     -1.4402678      18398.202    
    379000   0.96968564     0.0023323615  -0.0031558152   20.286559      18.846575      1.4399832     -1.5831957      18141.397    
    380000   1.0685594      0.0023323615   0.0024557596   20.676743      19.089933      1.5868107     -1.463899       18088.506    
    381000   1.0690631      0.0023323615  -0.0020287515   20.488342      18.900783      1.5875588     -1.6204266      18174.473    
    382000   0.81551713     0.0023323615  -0.00054961478  19.758882      18.547839      1.2110429     -1.9986683      18192.092    
    383000   1.0049413      0.0023323615   0.002431495    20.394207      18.901869      1.4923378     -1.6290534      18148.113    
    384000   1.1359773      0.0023323615   0.0010309748   20.494277      18.807351      1.6869263     -1.6579414      18174.072    
    385000   0.98764683     0.0023323615   0.0017953006   20.56655       19.099894      1.4666555     -1.3081097      18131.692    
    386000   1.0137549      0.0023323615   0.0031860937   20.153561      18.648135      1.505426      -1.8054086      18299.519    
    387000   0.99054059     0.0023323615  -0.00036066861  20.32633       18.855377      1.4709528     -1.7774216      18056.47     
    388000   1.009143       0.0023323615   0.0033451371   20.256048      18.757471      1.4985774     -1.823305       18146.806    
    389000   1.0661823      0.0023323615   0.00085205799  20.376395      18.793114      1.5832807     -1.7981342      18032.692    
    390000   0.94551267     0.0023323615   0.00035093361  20.323075      18.918988      1.4040863     -1.6637173      18140.764    
    391000   1.0069934      0.0023323615  -0.0021638546   20.213737      18.718352      1.4953852     -1.8376209      18118.329    
    392000   0.97674476     0.0023323615  -0.00015530418  20.236552      18.786086      1.450466      -1.7304194      18084.133    
    393000   0.94966636     0.0023323615   0.00013272066  20.458554      19.0483        1.4102545     -1.4514247      18196.138    
    394000   0.89413785     0.0023323615   0.0034744937   20.455595      19.1278        1.3277947     -1.3621039      18231.841    
    395000   0.88800905     0.0023323615   0.0010637656   20.170067      18.851374      1.3186934     -1.58777        18391.137    
    396000   0.88084476     0.0023323615   0.0053998341   20.110806      18.802752      1.3080545     -1.7478711      18153.711    
    397000   0.93216513     0.0023323615   6.9360705e-05  20.322729      18.938464      1.3842652     -1.6208824      18140.51     
    398000   0.96625874     0.0023323615   0.0027145908   20.217308      18.782413      1.4348942     -1.7662984      18084.255    
    399000   0.88780797     0.0023323615   0.0022993306   20.006432      18.688037      1.3183948     -1.7956282      18305.889    
    400000   1.0397814      0.0023323615  -0.00087400558  20.183508      18.639432      1.5440754     -1.7903783      18158.632    
    401000   1.0658335      0.0023323615  -0.00067973376  20.553547      18.970785      1.5827627     -1.6272145      17999.133    
    402000   0.82594804     0.0023323615  -0.0014001704   20.132869      18.906337      1.2265328     -1.671082       18120.164    
    403000   0.91108712     0.0023323615   0.00033848082  20.29299       18.940025      1.3529644     -1.5479183      18154.332    
    404000   1.0400154      0.0023323615  -0.0014861586   20.330371      18.785948      1.5444228     -1.7175389      18168.247    
    405000   1.0871898      0.0023323615  -0.0049789387   20.445997      18.83152       1.6144768     -1.6764723      18195.389    
    406000   0.91562051     0.0023323615   0.0008366056   20.056323      18.696627      1.3596965     -1.7933595      18328.381    
    407000   0.89538042     0.0023323615  -2.6870159e-05  20.066306      18.736666      1.3296399     -1.7788617      18213.151    
    408000   0.9954059      0.0023323615  -0.00035113472  20.469971      18.991793      1.4781778     -1.7433215      18372.187    
    409000   0.97127479     0.0023323615  -4.5987531e-06  20.469597      19.027254      1.4423431     -1.5351249      18275.064    
    410000   1.0339895      0.0023323615   0.0021034875   20.720495      19.18502       1.5354744     -1.358203       18362.551    
[...]
    861000   1.0542013      0.0023323615   4.9302966e-05  20.489556      18.924067      1.5654889     -1.6494368      18191.801    
    862000   0.88760848     0.0023323615  -0.0038157103   20.347203      19.029104      1.3180986     -1.5332718      18130.914    
    863000   0.94109729     0.0023323615  -0.0032268953   20.12718       18.729651      1.3975295     -1.8305572      18032.985    
    864000   0.97628945     0.0023323615  -0.00038177127  20.137837      18.688047      1.4497898     -1.8312715      18001.889    
    865000   0.99353792     0.0023323615   9.9937705e-05  20.094181      18.618777      1.4754038     -1.8486107      17974.914    
    866000   1.0497385      0.0023323615  -0.0035067455   20.585309      19.026447      1.5588616     -1.5735551      17956.94     
    867000   1.0174764      0.0023323615  -0.0028386967   20.377326      18.866374      1.5109525     -1.6472025      18079.282    
    868000   0.89152028     0.0023323615   0.0027144922   20.315881      18.991973      1.3239076     -1.5603008      18006.176    
    869000   0.86119967     0.0023323615  -0.001475678    20.226624      18.947743      1.2788815     -1.5848955      18064.823    
    870000   0.97036039     0.0023323615   0.0016272811   20.27084       18.829855      1.4409852     -1.7259719      18110.032    
    871000   1.0607488      0.0023323615   0.00041653223  20.612047      19.036835      1.575212      -1.4531631      18050.116    
    872000   1.0981167      0.0023323615  -0.0042573568   20.38447       18.753767      1.6307032     -1.7531976      17873.679    
    873000   1.0654506      0.0023323615  -0.00027940988  20.83699       19.254796      1.5821942     -1.3392356      18000.383    
    874000   0.94221862     0.0023323615   0.00086200432  20.260346      18.861151      1.3991946     -1.5323226      18086.893    
    875000   0.93130857     0.0023323615  -0.0012584329   20.101215      18.718221      1.3829932     -1.822438       17925.481    
    876000   0.9224949      0.0023323615  -0.0018278176   20.204533      18.834628      1.3699049     -1.6566162      17946.895    
    877000   0.96470535     0.0023323615   0.0014586879   20.143975      18.711388      1.4325874     -1.8240761      17751.884    
    878000   0.85856134     0.0023323615   0.0038049251   20.230932      18.955969      1.2749636     -1.6442233      17709.546    
    879000   0.92396928     0.0023323615   0.00044232041  20.37718       19.005086      1.3720944     -1.637036       18104.139    
    880000   0.91972481     0.0023323615  -0.0014910458   20.337288      18.971497      1.3657913     -1.7072316      17945.682    
    881000   0.94491566     0.0023323615  -0.0017983363   20.033219      18.63002       1.4031998     -1.8326827      17883.914    
    882000   1.0486977      0.0023323615   0.0038155813   20.18103       18.623714      1.557316      -1.9587901      17745.212    
    883000   1.0353205      0.0023323615   0.0019399593   20.318096      18.780645      1.5374509     -1.719585       17940.518    
    884000   1.0312836      0.0023323615   0.00088390668  20.353034      18.821578      1.5314562     -1.6807042      17967.132    
    885000   0.98393177     0.0023323615   0.0067691912   20.275364      18.814226      1.4611387     -1.7178506      17782.803    
    886000   0.98822802     0.0023323615   0.0019027974   19.89931       18.431791      1.4675186     -1.9489755      17739.62     
    887000   0.93379291     0.0023323615   0.00026977793  20.111664      18.724981      1.3866825     -1.7307978      18267.381    
    888000   1.0479773      0.0023323615  -1.4453214e-05  20.2725        18.716254      1.5562462     -1.7279939      18341.34     
    889000   0.92758461     0.0023323615   0.00084983712  20.303285      18.925822      1.3774631     -1.5509655      18249.462    
    890000   1.0016926      0.0023323615   0.00073412117  20.256038      18.768525      1.4875135     -1.7176784      18025.143    
    891000   0.9267538      0.0023323615   0.0027716751   20.364925      18.988696      1.3762294     -1.6579988      17813.031    
    892000   1.0320553      0.0023323615  -0.0028700433   20.293158      18.760556      1.5326022     -1.7442224      17903.71     
    893000   0.97558495     0.0023323615  -6.9544391e-05  20.309025      18.860281      1.4487436     -1.5316277      17968.924    
    894000   0.98834298     0.0023323615   0.00034896776  20.027846      18.560157      1.4676893     -1.8742516      18026.019    
    895000   1.0482079      0.0023323615  -0.0014997847   20.088926      18.532337      1.5565887     -1.8746175      18142.182    
    896000   1.0761679      0.0023323615   0.00037263981  20.30657       18.708461      1.5981093     -1.825859       18143.699    
    897000   1.1192144      0.0023323615   0.0027449534   20.530433      18.8684        1.6620333     -1.6092935      18066.608    
    898000   0.90757529     0.0023323615   0.0045455004   20.000681      18.652931      1.3477493     -1.8602402      18064.045    
    899000   0.98782646     0.0023323615  -0.0038099462   20.472731      19.005808      1.4669223     -1.4510386      18248.725    
    900000   0.93941609     0.0023323615   0.004722595    20.496383      19.10135       1.3950329     -1.4276741      18447.957    
    901000   0.94167245     0.0023323615   0.00345967     20.131188      18.732804      1.3983836     -1.6519838      18193.16     
    902000   1.0284849      0.0023323615  -0.00094777466  20.258328      18.731028      1.5273001     -1.7382302      18077.013    
    903000   1.0459555      0.0023323615   0.00069478409  20.436861      18.883617      1.553244      -1.5397244      18045.393    
    904000   1.0348843      0.0023323615   0.004684969    20.440331      18.903528      1.5368032     -1.6551196      18097.968    
    905000   0.98308125     0.0023323615   0.00235833     20.047686      18.587811      1.4598757     -1.8579967      18075.661    
    906000   0.99648399     0.0023323615  -0.002448901    20.338477      18.858698      1.4797787     -1.6754243      18226.554    
    907000   1.0024732      0.0023323615   0.00019070559  20.262312      18.773639      1.4886728     -1.7652819      18052.254    
    908000   1.0360551      0.0023323615  -0.0025641447   20.44376       18.905218      1.5385418     -1.6306786      17899.52     
    909000   0.91640029     0.0023323615  -0.0018200289   20.359342      18.998487      1.3608544     -1.570791       17974.415    
    910000   1.0434976      0.0023323615  -0.00043506987  20.285573      18.73598       1.5495939     -1.7114131      18075.818    
    911000   1.0735689      0.0023323615   0.0047654009   20.427355      18.833105      1.5942498     -1.6869388      18021.3      
    912000   0.98796929     0.0023323615  -0.00094305772  19.989167      18.522033      1.4671344     -1.9818957      18151.469    
    913000   1.0199493      0.0023323615  -0.0032296568   20.306606      18.791982      1.5146247     -1.7872398      18044.412    
    914000   0.87888193     0.0023323615  -0.0068046467   20.26828       18.96314       1.3051397     -1.6080202      18168.102    
    915000   1.0751558      0.0023323615  -0.0011244407   20.506143      18.909537      1.5966064     -1.700421       18285.593    
    916000   0.88611844     0.0023323615  -0.0022028646   20.085863      18.769977      1.3158859     -1.806656       18085.169    
    917000   1.0928295      0.0023323615  -0.0038348388   20.318271      18.695419      1.6228519     -1.857791       18010.673    
    918000   1.1255747      0.0023323615  -0.00067769328  20.412357      18.740879      1.6714784     -1.8779352      17965.205    
    919000   1.1036803      0.0023323615   0.0028871241   20.345833      18.706867      1.6389653     -1.8281723      17814.09     
    920000   0.99395557     0.0023323615  -0.0029989896   20.259818      18.783794      1.476024      -1.8027102      18023.877    
    921000   0.95428914     0.0023323615  -0.0039117616   20.589683      19.172563      1.4171194     -1.4313226      18084.608    
    922000   0.88943341     0.0023323615  -0.0016409749   20.084731      18.763923      1.3208086     -1.7180584      18232.647    
    923000   0.95230658     0.0023323615   0.0035180671   19.991525      18.57735       1.4141753     -1.785839       18014.746    
    924000   1.1959309      0.0023323615  -0.0027601517   20.640691      18.864734      1.7759574     -1.6246796      18009.844    
    925000   1.0673611      0.0023323615  -0.0015645769   20.379767      18.794736      1.5850312     -1.7068075      18338.813    
    926000   1.1095792      0.0023323615   0.0014830799   20.55727       18.909544      1.6477251     -1.6811005      18386.499    
    927000   1.2465829      0.0023323615  -0.0027157617   20.911229      19.060054      1.8511756     -1.5326766      18687.459    
    928000   0.9817684      0.0023323615  -0.0045056599   20.531099      19.073173      1.4579261     -1.4755127      18576.892    
    929000   0.78295772     0.0023323615   0.0023727152   20.124136      18.961444      1.1626922     -1.4878749      18156.105    
    930000   0.90095705     0.0023323615  -0.00035279962  20.18089       18.842968      1.3379212     -1.7257839      18144.111    
    931000   1.1114568      0.0023323615  -0.0046608571   20.583135      18.932621      1.6505134     -1.5648152      18052.642    
    932000   1.0976598      0.0023323615   0.0040829549   20.264595      18.634571      1.6300248     -1.7950334      18059.691    
    933000   1.0061139      0.0023323615  -0.004777746    20.377205      18.883126      1.4940792     -1.6518886      18018.18     
    934000   1.0449735      0.0023323615   0.001294318    20.111491      18.559705      1.5517856     -1.953685       17930.089    
    935000   1.1145412      0.0023323615   0.0042534486   20.250152      18.595059      1.6550936     -1.9035445      17921.654    
    936000   1.0682845      0.0023323615   0.0017906771   20.191748      18.605345      1.5864024     -1.8698036      17960.371    
    937000   1.0997458      0.0023323615  -0.00039805523  20.186623      18.553501      1.6331224     -1.8740193      18164.385    
    938000   0.99138499     0.0023323615  -0.00088106053  20.144992      18.672786      1.4722067     -1.8183216      18059.58     
    939000   0.9728103      0.0023323615  -0.00025168737  20.194753      18.750129      1.4446233     -1.8476671      17977.766    
    940000   1.0161814      0.0023323615  -0.00096466401  20.010177      18.501147      1.5090293     -1.9187985      18006.647    
    941000   0.94822517     0.0023323615  -0.0017013382   19.93267       18.524556      1.4081144     -1.8605241      17985.274    
    942000   1.0417825      0.0023323615   0.0003520937   20.243199      18.696152      1.547047      -1.7605912      17879.516    
    943000   0.92613198     0.0023323615   0.000568269    20.31964       18.944334      1.375306      -1.5849341      18120.908    
    944000   0.93649144     0.0023323615  -0.0017295792   20.298865      18.908176      1.3906898     -1.6162999      18133.593    
    945000   0.99761931     0.0023323615  -0.00073744662  20.461845      18.98038       1.4814647     -1.4359284      18200.372    
    946000   0.94265615     0.0023323615  -0.00082162866  20.336563      18.936719      1.3998444     -1.5038729      18208.975    
    947000   0.9874789      0.0023323615   0.0022843947   20.056903      18.590496      1.4664062     -1.7955596      18262.277    
    948000   1.0420307      0.0023323615  -0.0051144175   20.460419      18.913004      1.5474155     -1.5920023      18181.246    
    949000   1.0036457      0.0023323615   0.0010208795   20.216278      18.725864      1.4904139     -1.7096188      18136.347    
    950000   1.1617695      0.0023323615   0.00060127388  20.702541      18.977314      1.7252277     -1.4737287      17968.461    
    951000   0.9679889      0.0023323615   0.0015231496   20.203634      18.76617       1.4374635     -1.8930867      18037.055    
    952000   0.94046556     0.0023323615   0.0011053385   20.345577      18.948986      1.3965914     -1.6915761      17936.981    
    953000   0.93078174     0.0023323615   0.0017291293   20.44139       19.059179      1.3822109     -1.5152912      18043.88     
    954000   1.0412603      0.0023323615   0.0022220224   20.392789      18.846518      1.5462715     -1.6861536      18163.113    
    955000   0.97760186     0.0023323615  -0.0034137186   20.43323       18.981491      1.4517388     -1.5255812      18184.168    
    956000   1.1437626      0.0023323615   0.0011810932   20.644694      18.946206      1.6984874     -1.6004736      18053.348    
    957000   0.88925609     0.0023323615   0.000926186    20.20551       18.884965      1.3205453     -1.6820225      17948.26     
    958000   0.978294       0.0023323615   0.00013589122  20.077465      18.624698      1.4527666     -1.8287149      17866.845    
    959000   1.039542       0.0023323615   0.0024773458   20.689098      19.145378      1.5437199     -1.4147235      18028.155    
    960000   0.98168269     0.0023323615  -0.00039929969  20.141746      18.683947      1.4577988     -1.8356132      18003.182    
    961000   0.97658074     0.0023323615  -0.00052395233  20.239691      18.789468      1.4502224     -1.6085059      18019.38     
    962000   0.86251299     0.0023323615  -0.0016013332   20.159038      18.878207      1.2808318     -1.564166       18059.165    
    963000   0.88215491     0.0023323615  -0.0019790111   20.11766       18.807659      1.31          -1.7489197      18035.295    
    964000   1.0833247      0.0023323615  -0.0022097867   20.410276      18.801539      1.6087372     -1.8143778      17980.156    
    965000   0.97793109     0.0023323615   0.0041914586   20.199483      18.747255      1.4522277     -1.8675314      17937.874    
    966000   1.0267284      0.0023323615  -0.0023893822   20.255641      18.73095       1.5246917     -1.8807413      18003.565    
    967000   1.1087304      0.0023323615  -0.0022605045   20.465638      18.819174      1.6464647     -1.7580268      17977.75     
    968000   1.0290554      0.0023323615  -0.00020380637  20.419796      18.891648      1.5281473     -1.6392349      17879.717    
    969000   1.0296491      0.0023323615   0.0047134963   20.168737      18.639708      1.5290289     -1.8477842      17815.963    
    970000   1.0299912      0.0023323615  -0.001248369    20.197138      18.667601      1.5295369     -1.8228425      17848.394    
    971000   0.97267384     0.0023323615   0.00011536151  20.040852      18.596431      1.4444206     -1.7911141      17760.185    
    972000   0.97528053     0.0023323615   0.00062491295  20.368668      18.920376      1.4482916     -1.5984895      17934.077    
    973000   0.9738447      0.0023323615  -0.00040216495  20.22852       18.78236       1.4461594     -1.7279338      17966.575    
    974000   1.0682063      0.0023323615   0.00041238456  20.339688      18.753402      1.5862863     -1.7647264      17889.35     
    975000   1.1117159      0.0023323615   0.0017691851   20.64804       18.997142      1.6508981     -1.4811738      17947.028    
    976000   0.92843021     0.0023323615   0.0027303266   20.232249      18.85353       1.3787189     -1.5883412      18221.68     
    977000   0.89426477     0.0023323615   2.0388162e-05  20.130837      18.802854      1.3279832     -1.8390354      18093.017    
    978000   0.92127241     0.0023323615  -0.001921168    20.171694      18.803604      1.3680895     -1.7211154      17989.829    
    979000   0.85902046     0.0023323615  -0.0058035487   20.167814      18.892169      1.2756454     -1.6750754      17894.068    
    980000   0.95080086     0.0023323615   0.00028825295  20.034924      18.622985      1.4119393     -1.7525006      17854.888    
    981000   1.0585823      0.0023323615   0.0030323198   20.422619      18.850624      1.5719948     -1.7772735      17984.215    
    982000   1.1190641      0.0023323615  -0.00024011841  20.630788      18.968978      1.6618102     -1.4888004      18098.785    
    983000   1.1395653      0.0023323615  -0.0005607771   20.582557      18.890302      1.6922545     -1.6238244      18066.291    
    984000   0.96750911     0.0023323615  -0.002802535    19.985206      18.548455      1.436751      -1.879459       17880.076    
    985000   0.94621121     0.0023323615   0.00067774086  20.220895      18.815772      1.4051237     -1.7611083      17873.948    
    986000   1.1243491      0.0023323615   0.00044035433  20.489199      18.81954       1.6696583     -1.7910574      17880.034    
    987000   1.0707043      0.0023323615  -0.0041511239   20.330454      18.740458      1.5899959     -1.7814177      17823.391    
    988000   0.99341552     0.0023323615  -0.0014620415   20.320081      18.844859      1.475222      -1.7254034      17834.079    
    989000   1.0296348      0.0023323615  -0.0016767769   20.344411      18.815403      1.5290077     -1.6815743      17857.041    
    990000   1.0189941      0.0023323615  -0.0026235579   20.454314      18.941108      1.5132062     -1.5048633      17983.104    
    991000   0.99889513     0.0023323615  -0.00056161529  20.126325      18.642966      1.4833593     -1.7880452      17972.156    
    992000   0.9960629      0.0023323615   0.00066143713  20.202825      18.723672      1.4791534     -1.6990069      18001.38     
    993000   0.93520211     0.0023323615  -0.0013794204   19.871256      18.482481      1.3887751     -1.9653493      17795.726    
    994000   0.9926554      0.0023323615   0.0012269766   20.211089      18.736996      1.4740933     -1.8103914      17875.638    
    995000   1.06139        0.0023323615   0.0022470455   20.391492      18.815328      1.5761641     -1.7240813      18000.987    
    996000   0.85897869     0.0023323615   0.0003272478   20.048716      18.773133      1.2755834     -1.6119811      18077.622    
    997000   0.97721709     0.0023323615  -0.0016424444   20.212502      18.761335      1.4511674     -1.7702836      18047.589    
    998000   1.110732       0.0023323615   0.0024975879   20.469716      18.820279      1.649437      -1.7834384      18208.108    
    999000   0.96854988     0.0023323615  -0.0035931112   20.288842      18.850546      1.4382966     -1.8110889      18167.44     
   1000000   1.1125119      0.0023323615  -0.0061132164   20.676836      19.024756      1.6520801     -1.629075       18127.325    
Loop time of 55.0605 on 1 procs for 1000000 steps with 100 atoms

Performance: 7845911.916 tau/day, 18161.833 timesteps/s
99.4% CPU use with 1 MPI tasks x 1 OpenMP threads

MPI task timing breakdown:
Section |  min time  |  avg time  |  max time  |%varavg| %total
---------------------------------------------------------------
Pair    | 45.871     | 45.871     | 45.871     |   0.0 | 83.31
Bond    | 1.2959     | 1.2959     | 1.2959     |   0.0 |  2.35
Neigh   | 3.7897     | 3.7897     | 3.7897     |   0.0 |  6.88
Comm    | 1.3751     | 1.3751     | 1.3751     |   0.0 |  2.50
Output  | 0.2102     | 0.2102     | 0.2102     |   0.0 |  0.38
Modify  | 2.1668     | 2.1668     | 2.1668     |   0.0 |  3.94
Other   |            | 0.3521     |            |       |  0.64

Nlocal:            100 ave         100 max         100 min
Histogram: 1 0 0 0 0 0 0 0 0 0
Nghost:            338 ave         338 max         338 min
Histogram: 1 0 0 0 0 0 0 0 0 0
Neighs:           4847 ave        4847 max        4847 min
Histogram: 1 0 0 0 0 0 0 0 0 0

Total # of neighbors = 4847
Ave neighs/atom = 48.47
Ave special neighs/atom = 1.98
Neighbor list builds = 97816
Dangerous builds = 79399

write_data      ${outputfile_assembled} nofix nocoeff
write_data      7_assembled.data nofix nocoeff
System init for write_data ...
Generated 0 of 6 mixed pair_coeff terms from geometric mixing rule

Total wall time: 0:00:56
