LAMMPS (23 Jun 2022 - Update 1)
OMP_NUM_THREADS environment is not set. Defaulting to 1 thread. (src/comm.cpp:98)
  using 1 OpenMP thread(s) per MPI task


variable        runtime equal 1000000
variable		subsample_rate equal 1000

variable		outputfile_created string '3_created.data'
variable		outputfile_relaxed string '5_relaxed.data'
variable		outputfile_selfasb string '6_a_self_assemble.lammpstrj'
variable		outputfile_trajlin string '6_b_trajlin.data'
variable		outputfile_assembled string '7_assembled.data'

units           lj
atom_style      full
dimension       3
boundary        p p p
timestep        0.005

read_data       ${outputfile_created}
read_data       3_created.data
Reading data file ...
  orthogonal box = (0 0 0) to (35 35 35)
  1 by 1 by 1 MPI processor grid
  reading atoms ...
  100 atoms
  reading velocities ...
  100 velocities
  scanning bonds ...
  1 = max bonds/atom
  reading bonds ...
  99 bonds
Finding 1-2 1-3 1-4 neighbors ...
  special bond factors lj:    0        0        0       
  special bond factors coul:  0        0        0       
     2 = max # of 1-2 neighbors
     2 = max # of 1-3 neighbors
     4 = max # of 1-4 neighbors
     6 = max # of special neighbors
  special bonds CPU = 0.000 seconds
  read_data CPU = 0.007 seconds

bond_style      fene
bond_coeff      * 30.0 1.5 1.0 1.0
special_bonds   fene
Finding 1-2 1-3 1-4 neighbors ...
  special bond factors lj:    0        1        1       
  special bond factors coul:  0        1        1       
     2 = max # of 1-2 neighbors
     6 = max # of special neighbors
  special bonds CPU = 0.000 seconds

variable        Temp equal 1.0
variable        velSeed equal 926458

velocity        all create ${Temp} ${velSeed}
velocity        all create 1 ${velSeed}
velocity        all create 1 926458

### Output
thermo_style    custom step temp density press etotal pe ke epair spcpu
thermo          1000

###########################################################################
# Soft relaxation (to remove overlaps of particles)
######################################################################

pair_style      soft 1.0
pair_coeff      * * 0.0
variable        prefactor equal ramp(0,300)
fix             rampSoft all adapt 1 pair soft a * * v_prefactor

minimize        0.0 1.0e-8 1000 100000
WARNING: Using 'neigh_modify every 1 delay 0 check yes' setting during minimization (src/min.cpp:187)
Generated 0 of 6 mixed pair_coeff terms from geometric mixing rule
Neighbor list info ...
  update every 1 steps, delay 0 steps, check yes
  max neighbors/atom: 2000, page size: 100000
  master list distance cutoff = 1.3
  ghost atom cutoff = 1.3
  binsize = 0.65, bins = 54 54 54
  1 neighbor lists, perpetual/occasional/extra = 1 0 0
  (1) pair soft, perpetual
      attributes: half, newton on
      pair build: half/bin/newton
      stencil: half/bin/3d
      bin: standard
WARNING: Communication cutoff 1.3 is shorter than a bond length based estimate of 1.7550000000000001. This may lead to errors. (src/comm.cpp:727)
Per MPI rank memory allocation (min/avg/max) = 8.346 | 8.346 | 8.346 Mbytes
   Step          Temp         Density         Press          TotEng         PotEng         KinEng         E_pair         S/CPU     
         0   1              0.0023323615  -0.0039617958   21.524174      20.039174      1.485          0              0            
       362   1              0.0023323615   0.0023090379   21.485548      20.000548      1.485          0              56686.342    
Loop time of 0.00638992 on 1 procs for 362 steps with 100 atoms

97.1% CPU use with 1 MPI tasks x 1 OpenMP threads

Minimization stats:
  Stopping criterion = force tolerance
  Energy initial, next-to-last, final = 
      20.0391741078675   20.0005480767337   20.0005480767337
  Force two-norm initial, final = 11.878422 7.9509778e-09
  Force max component initial, final = 6.6117807 1.3572772e-09
  Final line search alpha, max atom move = 1 1.3572772e-09
  Iterations, force evaluations = 362 738

MPI task timing breakdown:
Section |  min time  |  avg time  |  max time  |%varavg| %total
---------------------------------------------------------------
Pair    | 0.00023278 | 0.00023278 | 0.00023278 |   0.0 |  3.64
Bond    | 0.0025368  | 0.0025368  | 0.0025368  |   0.0 | 39.70
Neigh   | 0.0023068  | 0.0023068  | 0.0023068  |   0.0 | 36.10
Comm    | 0.00020892 | 0.00020892 | 0.00020892 |   0.0 |  3.27
Output  | 0          | 0          | 0          |   0.0 |  0.00
Modify  | 0          | 0          | 0          |   0.0 |  0.00
Other   |            | 0.001105   |            |       | 17.29

Nlocal:            100 ave         100 max         100 min
Histogram: 1 0 0 0 0 0 0 0 0 0
Nghost:             20 ave          20 max          20 min
Histogram: 1 0 0 0 0 0 0 0 0 0
Neighs:              0 ave           0 max           0 min
Histogram: 1 0 0 0 0 0 0 0 0 0

Total # of neighbors = 0
Ave neighs/atom = 0
Ave special neighs/atom = 1.98
Neighbor list builds = 17
Dangerous builds = 0

fix             nvtSoft all nvt temp ${Temp} ${Temp} 0.5
fix             nvtSoft all nvt temp 1 ${Temp} 0.5
fix             nvtSoft all nvt temp 1 1 0.5
run             100000
Generated 0 of 6 mixed pair_coeff terms from geometric mixing rule
WARNING: Communication cutoff 1.3 is shorter than a bond length based estimate of 1.7550000000000001. This may lead to errors. (src/comm.cpp:727)
Per MPI rank memory allocation (min/avg/max) = 7.221 | 7.221 | 7.221 Mbytes
   Step          Temp         Density         Press          TotEng         PotEng         KinEng         E_pair         S/CPU     
       362   1              0.0023323615   0.0023090379   21.485548      20.000548      1.485          0              0            
      1000   0.90989032     0.0023323615  -0.0021940042   21.776974      20.425787      1.3511871      0.00036425437  67516.807    
      2000   0.86546688     0.0023323615   0.0034714157   21.677128      20.39191       1.2852183      0.0025814786   68746.59     
      3000   0.98199538     0.0023323615   0.0028144228   21.866132      20.407869      1.4582631      0.0011756043   66640.681    
      4000   1.004495       0.0023323615  -0.0014058211   21.945624      20.453949      1.4916751      0.011986179    65256.955    
      5000   1.1222705      0.0023323615   0.0044495116   21.986385      20.319813      1.6665718      0.0050317639   65572.059    
      6000   1.0538243      0.0023323615   0.0023957538   21.985713      20.420784      1.564929       0.012100514    67640.221    
      7000   1.0210598      0.0023323615  -0.00038820026  21.904665      20.388391      1.5162738      0              67992.156    
      8000   0.94819751     0.0023323615   0.0024943091   21.747889      20.339816      1.4080733      0              63877.119    
      9000   0.92364502     0.0023323615   0.0020053029   21.724166      20.352554      1.3716129      1.7780894e-05  69875.66     
     10000   0.86685188     0.0023323615   0.00078277366  21.644879      20.357604      1.287275       0.0098636418   71075.317    
     11000   1.0057103      0.0023323615   0.00010113276  21.8558        20.362321      1.4934798      0.020705341    70715.782    
     12000   0.97901664     0.0023323615  -0.0026996968   21.871206      20.417366      1.4538397      0.0052928539   66601.238    
     13000   0.97718436     0.0023323615  -6.1641422e-06  21.963706      20.512587      1.4511188      0.025022446    67447.884    
     14000   1.0530014      0.0023323615  -0.0009993112   21.947994      20.384287      1.5637071      0.0020860456   67086.35     
     15000   0.99094527     0.0023323615   0.0011068478   21.895146      20.423592      1.4715537      0.0015091113   66995.974    
     16000   0.91285091     0.0023323615  -0.00025424173  21.87524       20.519657      1.3555836      0.0047853639   61556.091    
     17000   0.82806978     0.0023323615  -0.00054698156  21.701984      20.472301      1.2296836      0              64409.396    
     18000   1.043278       0.0023323615  -6.6143919e-05  22.003299      20.454031      1.5492679      0.0034319132   68439.388    
     19000   1.0879249      0.0023323615  -0.0017804642   21.998985      20.383416      1.6155685      0.015376175    67748.805    
     20000   1.1144506      0.0023323615   0.0025198298   22.190904      20.535944      1.6549592      0              71444.059    
     21000   1.0427751      0.0023323615   0.0011345349   22.099492      20.550971      1.548521       0.00040047813  71150.809    
     22000   1.0586695      0.0023323615   0.0017882747   22.05673       20.484606      1.5721242      0              70025.721    
     23000   1.0058426      0.0023323615  -0.0055245362   21.954628      20.460951      1.4936763      0.0027619031   68611.2      
     24000   0.98273442     0.0023323615   0.0015147357   21.862067      20.402707      1.4593606      0              68822.523    
     25000   0.95835343     0.0023323615   0.0017808774   21.937761      20.514606      1.4231548      0.00020839942  66863.58     
     26000   0.93993778     0.0023323615  -0.0021777292   21.884849      20.489042      1.3958076      0.0088889834   67206.234    
     27000   0.9308188      0.0023323615  -0.00011239942  21.842252      20.459986      1.3822659      0.021612409    67468.671    
     28000   1.0149581      0.0023323615   0.0041996387   21.906846      20.399633      1.5072129      0.0064059022   67901.173    
     29000   0.92841138     0.0023323615  -2.5398808e-05  21.987185      20.608494      1.3786909      0.0046112484   68884.419    
     30000   1.021043       0.0023323615   0.001589158    22.097958      20.581709      1.5162489      0.016799508    69470.39     
     31000   1.0465985      0.0023323615  -0.0021744286   22.037917      20.483718      1.5541987      0.0057879149   71280.735    
     32000   0.98907108     0.0023323615  -0.0015558606   22.044089      20.575318      1.4687705      0.009448173    70664.561    
     33000   1.0918536      0.0023323615  -0.0025643847   22.039275      20.417873      1.6214025      0              68215.532    
     34000   0.99801543     0.0023323615   0.0016279766   21.932339      20.450286      1.4820529      0.017384617    71976.41     
     35000   1.0352271      0.0023323615  -0.0052971711   22.076004      20.538692      1.5373122      0.00010473809  69581.97     
     36000   1.1141579      0.0023323615  -0.00093279925  22.222491      20.567966      1.6545245      0.00033678641  69329.877    
     37000   1.0369415      0.0023323615   0.00013065175  22.217841      20.677983      1.5398581      0.013788831    69567.521    
     38000   1.0515596      0.0023323615   0.0021717558   22.070766      20.5092        1.561566       0.0067894678   71318.323    
     39000   1.0238495      0.0023323615   0.00026414509  22.040141      20.519725      1.5204165      0.00044464649  64683.212    
     40000   1.0749111      0.0023323615  -0.0026849368   22.039327      20.443084      1.596243       0.012651334    60356.324    
     41000   0.99070886     0.0023323615  -0.0030385564   22.03241       20.561207      1.4712027      0.00092855646  67865.023    
     42000   0.95315224     0.0023323615   0.0019788197   21.965263      20.549832      1.4154311      0.020233689    68077.301    
     43000   1.0644183      0.0023323615  -0.0011168725   22.287172      20.706511      1.5806611      0.039694129    70320.842    
     44000   1.0253747      0.0023323615  -0.006676522    22.066233      20.543552      1.5226814      0              70120.764    
     45000   0.94179556     0.0023323615  -0.0047206018   21.970644      20.572077      1.3985664      0.019869988    68619.924    
     46000   1.0083495      0.0023323615  -0.0017646918   21.972114      20.474715      1.497399       0.00026040605  67212.657    
     47000   0.98767959     0.0023323615  -0.00080218158  22.091674      20.62497       1.4667042      0.024266258    65012.726    
     48000   1.1473449      0.0023323615  -0.0025885687   22.080512      20.376705      1.7038072      0.00065962995  67507.367    
     49000   1.0679312      0.0023323615   0.0017688272   21.970482      20.384604      1.5858779      0.014142422    68111.632    
     50000   0.9581935      0.0023323615   0.0014398836   21.955202      20.532284      1.4229173      0.0055011948   69259.152    
     51000   1.0215759      0.0023323615  -0.00093292688  21.934681      20.41764       1.5170402      0              67458.69     
     52000   0.98079591     0.0023323615   0.0040701936   21.977374      20.520892      1.4564819      0.0020862422   67611.584    
     53000   1.0090927      0.0023323615   0.0013324753   22.095438      20.596935      1.4985027      0              65551.045    
     54000   0.97519627     0.0023323615   0.0013260734   22.070151      20.621984      1.4481665      0.026885444    66017.734    
     55000   1.1805087      0.0023323615  -0.001586238    22.424088      20.671033      1.7530554      0.024690954    66785.465    
     56000   0.98387121     0.0023323615   0.0037155145   22.104425      20.643376      1.4610487      0.01435493     67433.984    
     57000   1.0723812      0.0023323615  -0.0037916262   22.122726      20.53024       1.592486       0.013635549    68010.176    
     58000   1.0152349      0.0023323615   0.00021908047  22.082827      20.575203      1.5076238      0.00077375639  68453.518    
     59000   1.1424502      0.0023323615  -0.0052108657   22.30072       20.604182      1.6965385      0.013308184    69557.05     
     60000   1.0359703      0.0023323615  -0.00097887545  22.188218      20.649802      1.538416       0.00011346294  65460.633    
     61000   1.1646839      0.0023323615  -0.002085017    22.239945      20.51039       1.7295556      0.012918477    68926.087    
     62000   1.101836       0.0023323615   0.0010338878   22.171386      20.53516       1.6362265      0.001396566    68192.273    
     63000   0.96616435     0.0023323615   0.00097550571  21.903821      20.469067      1.4347541      0.013027663    70969.495    
     64000   1.0068907      0.0023323615  -0.0020278726   22.061652      20.566419      1.4952327      0.013750276    68083.336    
     65000   0.98723233     0.0023323615   0.0022441476   22.031073      20.565033      1.46604        0.0066686189   68235.766    
     66000   1.0273881      0.0023323615  -0.0003515278   22.183579      20.657908      1.5256713      0              67759.841    
     67000   0.96528212     0.0023323615  -0.00014822656  21.9396        20.506156      1.4334439      0.010365557    68326.107    
     68000   1.069702       0.0023323615   9.4754668e-05  22.081119      20.492611      1.5885075      0.00049153926  62732.207    
     69000   1.1229502      0.0023323615   0.0011504079   22.200329      20.532748      1.6675811      0.0068454249   62891.231    
     70000   1.0062775      0.0023323615  -0.00085311964  22.094021      20.599699      1.4943221      0.013222355    67404.84     
     71000   1.0906935      0.0023323615   0.00015260357  22.145362      20.525682      1.6196798      0.018338513    70133.87     
     72000   1.010401       0.0023323615  -6.0487182e-06  22.154105      20.653659      1.5004455      0.0013793953   69007.24     
     73000   1.1177599      0.0023323615  -0.0034084797   22.254435      20.594562      1.6598735      0.00011231735  71865.245    
     74000   0.9768019      0.0023323615   0.00016143893  22.07312       20.622569      1.4505508      0.0084515956   68897.447    
     75000   1.1360996      0.0023323615   0.002159116    22.161595      20.474487      1.6871079      0.0089909162   70681.124    
     76000   0.97379329     0.0023323615  -0.00068458621  21.988928      20.542845      1.446083       0              68905.911    
     77000   0.94876793     0.0023323615  -0.0016073976   21.923496      20.514575      1.4089204      0.017745108    68153.764    
     78000   0.83947996     0.0023323615  -0.00062768559  21.726727      20.480099      1.2466277      0.0054510099   68519.169    
     79000   1.0090614      0.0023323615  -0.00080262643  22.068192      20.569736      1.4984562      0.00023011166  69386.454    
     80000   1.1217643      0.0023323615  -0.0038177864   22.367902      20.702082      1.66582        0.032902439    69805.387    
     81000   1.0240158      0.0023323615   0.00023547123  22.031597      20.510933      1.5206635      0.0068767308   67758.091    
     82000   1.003236       0.0023323615  -0.0022802982   21.894199      20.404393      1.4898055      0.019136282    68294.083    
     83000   1.0554159      0.0023323615   0.004011718    22.104562      20.537269      1.5672927      0.0080869707   67747.01     
     84000   0.83527346     0.0023323615  -0.0034122221   21.874648      20.634267      1.2403811      0.0030083664   68738.401    
     85000   1.036002       0.0023323615   0.0013573923   21.962923      20.42446       1.5384629      0.015709144    69178.367    
     86000   0.9432002      0.0023323615  -0.0032183248   21.913588      20.512936      1.4006523      0.013730309    69253.483    
     87000   0.95566008     0.0023323615  -0.00049614223  21.91653       20.497375      1.4191552      0.0035862035   69613.712    
     88000   0.93373351     0.0023323615  -0.00097093893  21.870485      20.483891      1.3865943      0.0018212145   69162.023    
     89000   0.9684944      0.0023323615  -0.00047342045  21.973429      20.535215      1.4382142      0.00087524744  73913.064    
     90000   0.98293324     0.0023323615  -0.0032204602   22.050919      20.591263      1.4596559      0.015353933    76357.829    
     91000   1.0832827      0.0023323615   0.0048517083   22.11977       20.511095      1.6086749      0.0052867789   72936.497    
     92000   0.85899662     0.0023323615  -0.0013049519   21.765697      20.490087      1.27561        0.0024124001   67267.061    
     93000   0.96176266     0.0023323615  -4.4223672e-05  21.874222      20.446004      1.4282176      0.0045653365   64639.227    
     94000   0.96019503     0.0023323615   0.00024459347  21.944954      20.519064      1.4258896      3.8053462e-05  65361.613    
     95000   0.94702149     0.0023323615  -0.0033658915   21.86315       20.456823      1.4063269      0              64014.114    
     96000   0.91119348     0.0023323615  -0.0013197298   21.825018      20.471896      1.3531223      0.00043282989  65615.554    
     97000   1.0016687      0.0023323615  -0.0019514304   22.013024      20.525546      1.487478       0.0048369955   68256.297    
     98000   1.02143        0.0023323615  -0.0057874974   22.177965      20.661142      1.5168235      0              67710.106    
     99000   1.032786       0.0023323615   0.0018228259   21.975336      20.441649      1.5336871      7.1595851e-05  70567.686    
    100000   1.0594928      0.0023323615   0.0036169719   22.011024      20.437677      1.5733468      0.00032948157  70068.585    
    100362   1.1904942      0.0023323615  -0.00089755607  22.316856      20.548972      1.7678839      0.00063845255  70037.062    
Loop time of 1.46803 on 1 procs for 100000 steps with 100 atoms

Performance: 29427271.022 tau/day, 68118.683 timesteps/s
98.7% CPU use with 1 MPI tasks x 1 OpenMP threads

MPI task timing breakdown:
Section |  min time  |  avg time  |  max time  |%varavg| %total
---------------------------------------------------------------
Pair    | 0.051906   | 0.051906   | 0.051906   |   0.0 |  3.54
Bond    | 0.13304    | 0.13304    | 0.13304    |   0.0 |  9.06
Neigh   | 0.92446    | 0.92446    | 0.92446    |   0.0 | 62.97
Comm    | 0.05992    | 0.05992    | 0.05992    |   0.0 |  4.08
Output  | 0.0027118  | 0.0027118  | 0.0027118  |   0.0 |  0.18
Modify  | 0.25878    | 0.25878    | 0.25878    |   0.0 | 17.63
Other   |            | 0.0372     |            |       |  2.53

Nlocal:            100 ave         100 max         100 min
Histogram: 1 0 0 0 0 0 0 0 0 0
Nghost:             60 ave          60 max          60 min
Histogram: 1 0 0 0 0 0 0 0 0 0
Neighs:             36 ave          36 max          36 min
Histogram: 1 0 0 0 0 0 0 0 0 0

Total # of neighbors = 36
Ave neighs/atom = 0.36
Ave special neighs/atom = 1.98
Neighbor list builds = 9821
Dangerous builds = 8265
unfix           nvtSoft
unfix           rampSoft
reset_timestep  0

write_data      ${outputfile_relaxed}
write_data      5_relaxed.data
System init for write_data ...
Generated 0 of 6 mixed pair_coeff terms from geometric mixing rule
WARNING: Communication cutoff 1.3 is shorter than a bond length based estimate of 1.7550000000000001. This may lead to errors. (src/comm.cpp:727)
WARNING: Not all mixed pair coeffs generated from mixing. Use write_data with 'pair ij' option to store all pair coeffs. (src/write_data.cpp:309)

###########################################################################
# Full LJ with Coulomb
######################################################################

# Cutoffs and parameters:
# - Values: Marcel Verkade's Bachelor Thesis
# - Mapping to atom groups: Patrick Onck's paper
# - 1: aliphatic, 2: aromatic, 3: anion, 4: cation
# pair_style	lj/cut/coul/cut <lj_cut_global> <coul_cut_global>
# pair_coeff	<type_1>  <type_2>  <eps>  <sigma>  <r_cut_lj>  <r_cut_coul>

# Problem: Onck's model is much more complex, and Marcel has no sigma reported
# Using sigma=1 randomly

variable		glob_ljeps equal 1.0
variable		glob_ljsig 	equal 1.0
variable		glob_coulcut equal 10.0
variable		att_ljcut equal 2.50
variable		rep_ljcut equal 1.12

pair_style		lj/cut/coul/cut 						${att_ljcut} 	${glob_coulcut}
pair_style		lj/cut/coul/cut 						2.5 	${glob_coulcut}
pair_style		lj/cut/coul/cut 						2.5 	10
pair_coeff		1 1 	${glob_ljeps} 	${glob_ljsig}	${att_ljcut} 	${glob_coulcut}
pair_coeff		1 1 	1 	${glob_ljsig}	${att_ljcut} 	${glob_coulcut}
pair_coeff		1 1 	1 	1	${att_ljcut} 	${glob_coulcut}
pair_coeff		1 1 	1 	1	2.5 	${glob_coulcut}
pair_coeff		1 1 	1 	1	2.5 	10
pair_coeff		1 2 	${glob_ljeps} 	${glob_ljsig}	${att_ljcut} 	${glob_coulcut}
pair_coeff		1 2 	1 	${glob_ljsig}	${att_ljcut} 	${glob_coulcut}
pair_coeff		1 2 	1 	1	${att_ljcut} 	${glob_coulcut}
pair_coeff		1 2 	1 	1	2.5 	${glob_coulcut}
pair_coeff		1 2 	1 	1	2.5 	10
pair_coeff		1 3 	${glob_ljeps} 	${glob_ljsig}	${rep_ljcut} 	${glob_coulcut}
pair_coeff		1 3 	1 	${glob_ljsig}	${rep_ljcut} 	${glob_coulcut}
pair_coeff		1 3 	1 	1	${rep_ljcut} 	${glob_coulcut}
pair_coeff		1 3 	1 	1	1.12 	${glob_coulcut}
pair_coeff		1 3 	1 	1	1.12 	10
pair_coeff		1 4 	${glob_ljeps} 	${glob_ljsig}	${rep_ljcut} 	${glob_coulcut}
pair_coeff		1 4 	1 	${glob_ljsig}	${rep_ljcut} 	${glob_coulcut}
pair_coeff		1 4 	1 	1	${rep_ljcut} 	${glob_coulcut}
pair_coeff		1 4 	1 	1	1.12 	${glob_coulcut}
pair_coeff		1 4 	1 	1	1.12 	10
pair_coeff		2 2 	${glob_ljeps} 	${glob_ljsig}	${att_ljcut} 	${glob_coulcut}
pair_coeff		2 2 	1 	${glob_ljsig}	${att_ljcut} 	${glob_coulcut}
pair_coeff		2 2 	1 	1	${att_ljcut} 	${glob_coulcut}
pair_coeff		2 2 	1 	1	2.5 	${glob_coulcut}
pair_coeff		2 2 	1 	1	2.5 	10
pair_coeff		2 3 	${glob_ljeps} 	${glob_ljsig}	${rep_ljcut} 	${glob_coulcut}
pair_coeff		2 3 	1 	${glob_ljsig}	${rep_ljcut} 	${glob_coulcut}
pair_coeff		2 3 	1 	1	${rep_ljcut} 	${glob_coulcut}
pair_coeff		2 3 	1 	1	1.12 	${glob_coulcut}
pair_coeff		2 3 	1 	1	1.12 	10
pair_coeff		2 4 	${glob_ljeps} 	${glob_ljsig}	${att_ljcut} 	${glob_coulcut}
pair_coeff		2 4 	1 	${glob_ljsig}	${att_ljcut} 	${glob_coulcut}
pair_coeff		2 4 	1 	1	${att_ljcut} 	${glob_coulcut}
pair_coeff		2 4 	1 	1	2.5 	${glob_coulcut}
pair_coeff		2 4 	1 	1	2.5 	10
pair_coeff		3 3 	${glob_ljeps} 	${glob_ljsig}	${rep_ljcut} 	${glob_coulcut}
pair_coeff		3 3 	1 	${glob_ljsig}	${rep_ljcut} 	${glob_coulcut}
pair_coeff		3 3 	1 	1	${rep_ljcut} 	${glob_coulcut}
pair_coeff		3 3 	1 	1	1.12 	${glob_coulcut}
pair_coeff		3 3 	1 	1	1.12 	10
pair_coeff		3 4 	${glob_ljeps} 	${glob_ljsig}	${att_ljcut} 	${glob_coulcut}
pair_coeff		3 4 	1 	${glob_ljsig}	${att_ljcut} 	${glob_coulcut}
pair_coeff		3 4 	1 	1	${att_ljcut} 	${glob_coulcut}
pair_coeff		3 4 	1 	1	2.5 	${glob_coulcut}
pair_coeff		3 4 	1 	1	2.5 	10
pair_coeff		4 4 	${glob_ljeps} 	${glob_ljsig}	${rep_ljcut} 	${glob_coulcut}
pair_coeff		4 4 	1 	${glob_ljsig}	${rep_ljcut} 	${glob_coulcut}
pair_coeff		4 4 	1 	1	${rep_ljcut} 	${glob_coulcut}
pair_coeff		4 4 	1 	1	1.12 	${glob_coulcut}
pair_coeff		4 4 	1 	1	1.12 	10


fix             noDriftRot 	all momentum 10 linear 1 1 1 angular
fix             nvt1 		all nvt temp ${Temp} ${Temp} 0.5
fix             nvt1 		all nvt temp 1 ${Temp} 0.5
fix             nvt1 		all nvt temp 1 1 0.5

# dump          assemble 	all custom 1000 				${outputfile_selfasb} id type xu yu zu vx vy vz
dump            lindump 	all custom ${subsample_rate} 	${outputfile_trajlin} id type xu yu zu vx vy vz
dump            lindump 	all custom 1000 	${outputfile_trajlin} id type xu yu zu vx vy vz
dump            lindump 	all custom 1000 	6_b_trajlin.data id type xu yu zu vx vy vz

run             ${runtime}
run             1000000
Generated 0 of 6 mixed pair_coeff terms from geometric mixing rule
Neighbor list info ...
  update every 1 steps, delay 10 steps, check yes
  max neighbors/atom: 2000, page size: 100000
  master list distance cutoff = 10.3
  ghost atom cutoff = 10.3
  binsize = 5.15, bins = 7 7 7
  1 neighbor lists, perpetual/occasional/extra = 1 0 0
  (1) pair lj/cut/coul/cut, perpetual
      attributes: half, newton on
      pair build: half/bin/newton
      stencil: half/bin/3d
      bin: standard
Per MPI rank memory allocation (min/avg/max) = 7.712 | 7.712 | 7.712 Mbytes
   Step          Temp         Density         Press          TotEng         PotEng         KinEng         E_pair         S/CPU     
         0   1.1904942      0.0023323615  -0.0015367813   22.00566       20.237776      1.7678839     -0.31055783     0            
      1000   0.98846695     0.0023323615  -0.0018182647   21.134504      19.66663       1.4678734     -0.75839982     32982.633    
      2000   1.0494292      0.0023323615   0.0053594922   21.090466      19.532063      1.5584024     -1.0538917      30128.344    
      3000   1.0380663      0.0023323615  -0.0061274006   21.190398      19.64887       1.5415284     -1.0035453      24817.584    
      4000   0.89465395     0.0023323615  -0.00094661384  20.037659      18.709098      1.3285611     -1.7082716      19234.266    
      5000   1.0400198      0.0023323615   0.0018686645   20.617659      19.07323       1.5444295     -1.4132843      17682.051    
      6000   1.0065         0.0023323615   0.0012224686   19.93821       18.443558      1.4946526     -1.976316       17802.414    
      7000   1.0385308      0.0023323615  -0.0013852779   20.326504      18.784285      1.5422182     -1.7368519      17505.73     
      8000   0.91317558     0.0023323615   0.00052216316  20.008365      18.652299      1.3560657     -1.9099211      17520.292    
      9000   1.1830733      0.0023323615  -0.0041120893   20.428395      18.671531      1.7568639     -1.7594252      17510.459    
     10000   1.0538278      0.0023323615   0.0052627616   20.205515      18.640581      1.5649342     -1.8797332      17730.281    
     11000   0.85280625     0.0023323615   0.0028341203   20.15859       18.892173      1.2664173     -1.6136539      17756.685    
     12000   0.96389893     0.0023323615  -0.0024455659   20.13927       18.70788       1.4313899     -1.8812022      17891.661    
     13000   0.85259593     0.0023323615  -0.00071960707  20.042084      18.775979      1.266105      -1.6794608      17137.259    
     14000   1.1308134      0.0023323615   0.0039146297   20.117135      18.437878      1.6792579     -1.9936438      16937.568    
     15000   0.98624235     0.0023323615  -0.00081201564  20.225304      18.760734      1.4645699     -1.7315762      17090.482    
     16000   0.98440743     0.0023323615  -0.0059420411   20.296967      18.835122      1.461845      -1.7459625      17052.093    
     17000   1.0953514      0.0023323615   1.5807408e-05  20.45618       18.829584      1.6265969     -1.6118871      17064.55     
     18000   0.80375885     0.0023323615   0.0042020839   19.805065      18.611483      1.1935819     -1.796938       17237.774    
     19000   0.95231082     0.0023323615  -0.0011748736   20.075451      18.661269      1.4141816     -1.7891844      17065.528    
     20000   0.80440262     0.0023323615  -0.0058535012   20.066167      18.871629      1.1945379     -1.6657128      16827.505    
     21000   0.91189791     0.0023323615  -0.0014343948   19.84815       18.493982      1.3541684     -2.0377324      16988.275    
     22000   1.0928941      0.0023323615  -0.0019143945   20.293804      18.670856      1.6229478     -1.8379803      17117.705    
     23000   0.97528051     0.0023323615   0.00022336243  19.780927      18.332636      1.4482916     -2.0578812      17153.937    
     24000   1.0022187      0.0023323615  -0.00094819898  20.135491      18.647197      1.4882948     -1.8940645      17188.323    
     25000   1.1190469      0.0023323615  -0.00043932143  20.246254      18.58447       1.6617846     -1.8968327      18184.271    
     26000   1.1359137      0.0023323615   0.00082527516  20.147655      18.460824      1.6868319     -2.0986445      17301.829    
     27000   0.97251572     0.0023323615  -0.00014253029  20.208933      18.764748      1.4441858     -1.6752792      17054.415    
     28000   0.94848439     0.0023323615   0.00029617114  20.219649      18.81115       1.4084993     -1.7191915      17195.447    
     29000   1.0600759      0.0023323615   0.0013893037   20.016698      18.442485      1.5742127     -2.0390937      17266.55     
     30000   1.0100216      0.0023323615   0.0020764275   20.232553      18.732671      1.4998821     -1.8077712      17150.548    
     31000   0.87077759     0.0023323615  -0.0020820461   20.117397      18.824292      1.2931047     -1.7429248      17671.091    
     32000   0.96134006     0.0023323615  -0.0037176431   20.103425      18.675835      1.42759       -1.8182061      17485.462    
     33000   0.91204658     0.0023323615   0.003129251    20.319169      18.96478       1.3543892     -1.4774791      17361.707    
     34000   0.91853599     0.0023323615   0.0048005802   20.143636      18.77961       1.3640259     -1.699119       16947.844    
     35000   1.0317723      0.0023323615  -0.0001479469   20.289661      18.757479      1.5321819     -1.7198446      16865.142    
     36000   1.0839312      0.0023323615   0.0027982015   20.251977      18.642339      1.6096379     -1.8366626      16770.644    
     37000   0.94948693     0.0023323615  -0.0021734423   20.203776      18.793788      1.4099881     -1.710084       16977.996    
     38000   0.98158759     0.0023323615   0.0013642975   20.289304      18.831646      1.4576576     -1.7923831      17688.575    
     39000   1.0003749      0.0023323615   0.002004598    20.064738      18.579181      1.4855568     -1.8326319      17665.737    
     40000   1.0572089      0.0023323615   0.00079738412  20.42848       18.858524      1.5699552     -1.7181882      16965.197    
     41000   0.98939395     0.0023323615   0.0017952402   20.024987      18.555737      1.46925       -2.0392999      16997.049    
     42000   1.1937944      0.0023323615   0.0036388141   20.371818      18.599034      1.7727847     -1.8975546      17126.441    
     43000   0.93886347     0.0023323615  -0.0039577914   20.092676      18.698464      1.3942122     -1.8185875      17443.929    
     44000   1.0242513      0.0023323615  -0.0008658761   20.213618      18.692605      1.5210132     -1.8454409      18087.164    
     45000   0.97847814     0.0023323615  -0.0065928805   20.219078      18.766037      1.45304       -1.7814428      17780.969    
     46000   1.0258502      0.0023323615  -0.0014526406   20.248785      18.725397      1.5233875     -1.7892838      17656.396    
     47000   1.0295556      0.0023323615   0.0022282975   20.100223      18.571333      1.5288901     -1.8563825      17570.608    
     48000   0.85906174     0.0023323615  -8.5383479e-06  19.704138      18.428431      1.2757067     -2.024788       17521.033    
     49000   1.0537803      0.0023323615  -0.00058538477  20.168423      18.60356       1.5648638     -1.8612719      17938.192    
     50000   1.003475       0.0023323615   0.0069482118   20.413159      18.922999      1.4901604     -1.5897352      17993.201    
     51000   1.064634       0.0023323615  -0.0027203166   20.356928      18.775947      1.5809815     -1.6894711      17972.171    
     52000   1.2102509      0.0023323615   0.0011697221   20.416374      18.619152      1.7972225     -1.9284308      17702.31     
     53000   0.99670509     0.0023323615   0.0025852937   20.052509      18.572402      1.4801071     -2.0444722      17512.917    
     54000   1.084785       0.0023323615   0.0016802067   20.04191       18.431004      1.6109057     -1.9535053      17622.875    
     55000   1.079518       0.0023323615  -0.00012809809  20.220549      18.617465      1.6030842     -1.9072351      17624.179    
     56000   1.0589796      0.0023323615  -0.0024029025   19.982809      18.410225      1.5725847     -1.8998452      17629.651    
     57000   1.0026326      0.0023323615  -0.0014719297   20.121391      18.632481      1.4889094     -1.909177       17511.153    
     58000   0.99838231     0.0023323615   0.0023923943   20.293541      18.810944      1.4825977     -1.7106868      17354.188    
     59000   0.84605091     0.0023323615  -0.0006992831   19.823453      18.567067      1.2563856     -2.0488914      16841.091    
     60000   0.9880625      0.0023323615  -0.0008786942   20.000196      18.532923      1.4672728     -1.8713116      16915.088    
     61000   0.92665873     0.0023323615  -0.0029513101   20.234205      18.858117      1.3760882     -1.6536988      16812.14     
     62000   1.0027481      0.0023323615   0.0015353744   19.97462       18.485539      1.4890809     -2.0185488      16985.086    
     63000   1.0775017      0.0023323615   0.0029465012   20.175109      18.575019      1.60009       -1.941354       17084.202    
     64000   1.0603645      0.0023323615  -0.002590998    20.060566      18.485925      1.5746412     -2.0579338      16768.505    
     65000   0.88467912     0.0023323615   0.0018151989   19.881353      18.567605      1.3137485     -1.9637463      16727.731    
     66000   1.027604       0.0023323615   0.0017929585   20.271503      18.745511      1.525992      -1.8806814      16666.691    
     67000   1.0424669      0.0023323615   0.0029909919   19.928424      18.380361      1.5480633     -2.057867       16714.719    
     68000   1.0585196      0.0023323615  -0.0014816875   20.312456      18.740555      1.5719016     -1.8611426      16828.603    
     69000   0.97343681     0.0023323615   0.0030401661   19.993583      18.54803       1.4455537     -1.9928893      16872.209    
     70000   1.0488925      0.0023323615  -0.0037453878   20.186242      18.628637      1.5576053     -1.9661925      17612.749    
     71000   0.8912058      0.0023323615  -0.00038902973  20.103429      18.779988      1.3234406     -1.7702317      17231.748    
     72000   0.96212563     0.0023323615   0.0026885767   19.798488      18.369731      1.4287566     -2.196173       16795.276    
     73000   1.034643       0.0023323615  -0.0029608992   20.405294      18.868849      1.5364449     -1.7281212      16852.613    
     74000   1.0202686      0.0023323615  -0.0025222128   20.071488      18.556389      1.5150989     -1.9001533      16663.719    
     75000   0.95187654     0.0023323615   0.00087832429  20.031552      18.618016      1.4135367     -1.9014465      16954.088    
     76000   0.98279175     0.0023323615  -0.0039529828   20.338438      18.878992      1.4594457     -1.7043395      17403.673    
     77000   1.0277262      0.0023323615  -0.00017537083  20.096906      18.570733      1.5261734     -1.8947493      17030.223    
     78000   1.1141785      0.0023323615   0.0013681383   20.351164      18.696609      1.654555      -1.8464435      16928.718    
     79000   1.0148485      0.0023323615   0.0042011732   20.063855      18.556805      1.50705       -1.9576283      16928.672    
     80000   0.98622162     0.0023323615   0.00088423641  20.146088      18.681549      1.4645391     -1.8387435      17040.524    
     81000   0.96345643     0.0023323615  -0.0020003702   19.929318      18.498585      1.4307328     -1.9423917      16942.839    
     82000   0.95367562     0.0023323615   0.0015758164   19.9139        18.497691      1.4162083     -1.994225       16970.133    
     83000   0.99258075     0.0023323615   0.0025437004   20.054762      18.58078       1.4739824     -1.8918329      17692.09     
     84000   1.0094452      0.0023323615   0.0033983754   20.329462      18.830436      1.4990261     -1.7252078      17433.427    
     85000   1.1179672      0.0023323615  -0.0049768017   20.303103      18.642922      1.6601813     -1.9042448      17176        
     86000   1.0436304      0.0023323615  -0.00046491144  20.172749      18.622958      1.5497912     -1.9543255      17323.516    
     87000   0.92485111     0.0023323615   0.0047048656   20.013052      18.639648      1.3734039     -1.9119323      17308.024    
     88000   0.9626252      0.0023323615   0.0015372143   19.749245      18.319747      1.4294984     -2.2190965      17517.109    
     89000   0.97630845     0.0023323615  -0.001140463    19.911866      18.462048      1.449818      -1.9813449      17976.767    
     90000   0.98390883     0.0023323615  -0.0014659313   20.24401       18.782906      1.4611046     -1.8783436      17557.252    
     91000   1.0408615      0.0023323615   0.0012229703   20.650947      19.105268      1.5456793     -1.6336872      17456.377    
     92000   1.1070263      0.0023323615   0.0015985494   20.312226      18.668292      1.643934      -1.8359061      17389.483    
     93000   1.1492283      0.0023323615   0.0028773211   20.328627      18.622023      1.7066041     -1.7517736      17506.433    
     94000   0.92632093     0.0023323615  -0.0033601897   20.295522      18.919935      1.3755866     -1.5713813      17629.181    
     95000   0.97929805     0.0023323615   0.0055669451   20.162623      18.708366      1.4542576     -1.8411469      17538.123    
     96000   1.0324798      0.0023323615  -0.0035452097   20.261258      18.728026      1.5332325     -1.730387       17203.636    
     97000   0.90028435     0.0023323615  -0.0031672765   20.297005      18.960082      1.3369223     -1.5782504      17186.254    
     98000   1.0085947      0.0023323615   0.0019521759   20.236163      18.7384        1.4977632     -1.9058793      17163.763    
     99000   0.96700541     0.0023323615   0.0010228839   20.083576      18.647573      1.436003      -1.9278021      17469.447    
    100000   1.0325028      0.0023323615   0.0015069328   20.161018      18.627751      1.5332667     -1.937016       17714.343    
    101000   1.1021029      0.0023323615  -7.1580892e-05  20.290698      18.654076      1.6366227     -1.7786162      17493.187    
    102000   0.92079424     0.0023323615  -0.00090778316  20.007472      18.640093      1.3673794     -1.8750402      17384.559    
    103000   0.99380705     0.0023323615  -0.0054625916   19.916819      18.441016      1.4758035     -2.0265761      17176.819    
    104000   1.277326       0.0023323615   0.0028987034   20.440515      18.543686      1.8968291     -1.9707853      16907.303    
    105000   1.1228378      0.0023323615  -0.0022176548   20.252634      18.58522       1.6674142     -1.9229782      16988.095    
    106000   1.1492998      0.0023323615  -0.00092688593  20.140011      18.4333        1.7067102     -2.0753683      17062.543    
    107000   0.95072856     0.0023323615   0.00047743695  19.969679      18.557848      1.4118319     -1.9156021      17086.425    
    108000   1.2343595      0.0023323615   0.00087151317  20.494959      18.661936      1.8330238     -1.9012172      17098.944    
    109000   0.88095469     0.0023323615  -0.0018381557   20.027586      18.719369      1.3082177     -1.6893129      16841.295    
    110000   0.86233538     0.0023323615  -0.0013112007   19.930946      18.650378      1.280568      -1.7694111      16760.592    
    111000   1.1584399      0.0023323615   0.00019124683  20.074018      18.353735      1.7202832     -2.1128007      16714.587    
    112000   0.9991563      0.0023323615  -7.9939478e-07  20.003601      18.519854      1.4837471     -1.9205266      16830.184    
    113000   0.85768851     0.0023323615   0.0033349576   19.905241      18.631574      1.2736674     -1.8162907      16830.621    
    114000   1.2798313      0.0023323615   7.1781454e-05  20.644734      18.744185      1.9005495     -1.7183463      16773.96     
    115000   1.0061398      0.0023323615   0.0033513023   19.961478      18.46736       1.4941176     -1.8871725      17597.152    
    116000   0.99132961     0.0023323615   0.00077617821  19.858666      18.386542      1.4721245     -2.0939644      17203.274    
    117000   1.0065932      0.0023323615   0.00035926215  19.959868      18.465077      1.4947909     -2.1330562      16715.567    
    118000   1.0008818      0.0023323615  -0.0058019715   20.286998      18.800689      1.4863094     -1.784608       16570.646    
    119000   1.0073732      0.0023323615   0.0016443421   20.311609      18.81566       1.4959492     -1.8908884      16437.357    
    120000   0.92065298     0.0023323615  -0.0025416258   20.187593      18.820423      1.3671697     -1.675461       17193.773    
    121000   1.0738061      0.0023323615  -0.0025114271   20.095072      18.50047       1.594602      -1.9587825      17251.551    
    122000   1.0222575      0.0023323615   0.0016646169   19.88232       18.364267      1.5180523     -2.129598       16697        
    123000   0.96309258     0.0023323615   0.0016393899   20.036513      18.606321      1.4301925     -1.9609203      16651.69     
    124000   0.8680206      0.0023323615  -0.00078094283  19.827865      18.538854      1.2890106     -1.8953542      16671.816    
    125000   1.0263643      0.0023323615   0.0044620735   20.009337      18.485186      1.5241509     -1.838082       16862.586    
    126000   1.0747139      0.0023323615   0.0010657617   20.266597      18.670647      1.5959501     -1.8816709      16941.772    
    127000   1.0834949      0.0023323615  -0.0016594598   20.411672      18.802682      1.6089899     -1.7223127      17323.958    
    128000   0.94834824     0.0023323615  -0.0015294675   19.946549      18.538251      1.4082971     -1.9625633      17901.091    
    129000   0.94973889     0.0023323615   0.0034172487   19.992407      18.582045      1.4103623     -2.0132767      17097.725    
    130000   0.83191969     0.0023323615   0.0020719      19.831806      18.596406      1.2354007     -1.9820958      17042.069    
    131000   1.0241442      0.0023323615  -0.0020336423   20.069507      18.548653      1.5208541     -1.9736493      17237.146    
    132000   0.98642493     0.0023323615  -0.0036837865   20.12332       18.658479      1.464841      -1.9189543      17176.591    
    133000   0.96765066     0.0023323615   0.00087934826  19.981534      18.544573      1.4369612     -1.8955944      17933.928    
    134000   1.052674       0.0023323615  -0.0028484733   20.133515      18.570295      1.5632208     -1.9214286      17866.085    
    135000   1.110966       0.0023323615   0.001366322    20.137192      18.487407      1.6497846     -1.9432133      17584.72     
    136000   1.0940791      0.0023323615   0.0025684614   20.11062       18.485912      1.6247075     -2.0709375      17373.983    
    137000   0.99848833     0.0023323615   0.00024969752  19.947926      18.465171      1.4827552     -1.9413959      16973.552    
    138000   0.99504793     0.0023323615   0.00085456811  20.429685      18.952039      1.4776462     -1.6624645      17381.54     
    139000   1.1468345      0.0023323615  -0.00010582349  20.326297      18.623248      1.7030492     -2.0513652      17943.822    
    140000   0.97539159     0.0023323615   0.0013928959   19.923131      18.474675      1.4484565     -2.0249541      16666.349    
    141000   1.0474991      0.0023323615   0.0020750658   20.060919      18.505383      1.5555362     -1.9535886      17476.755    
    142000   0.9354172      0.0023323615  -0.002076987    19.823425      18.434331      1.3890945     -2.021015       17536.221    
    143000   0.97272013     0.0023323615  -0.0042154378   20.20233       18.75784       1.4444894     -1.7241584      17408.506    
    144000   1.0204503      0.0023323615   0.0040928368   19.996119      18.480751      1.5153688     -2.0610366      17461.342    
    145000   0.87385527     0.0023323615   0.0015101347   19.688933      18.391258      1.2976751     -2.1286435      17430.294    
    146000   1.0322102      0.0023323615  -0.0052631984   20.111862      18.57903       1.5328321     -1.9306972      17520.741    
    147000   1.0438833      0.0023323615   0.0050873634   20.430325      18.880159      1.5501667     -1.7025842      17513.627    
    148000   1.1072105      0.0023323615   0.0020458608   20.198834      18.554627      1.6442076     -1.9705358      17185.898    
    149000   1.0109172      0.0023323615  -0.0012193354   20.091915      18.590703      1.5012121     -1.9931489      17116.599    
    150000   0.87589223     0.0023323615   0.001090681    19.785755      18.485055      1.3007        -2.0476601      16923.812    
    151000   1.1516197      0.0023323615   0.0023904417   20.21662       18.506465      1.7101552     -1.9937743      16620.424    
    152000   1.0592427      0.0023323615   0.00081986673  20.107852      18.534876      1.5729754     -1.9319901      17088.659    
    153000   0.89626157     0.0023323615   0.0017300444   19.672148      18.3412        1.3309484     -2.1152607      16613.597    
    154000   1.0232273      0.0023323615  -0.0029421847   20.169786      18.650293      1.5194926     -1.842912       16696.388    
    155000   0.95709552     0.0023323615   0.0043525164   20.121596      18.70031       1.4212868     -1.9089299      16739.272    
    156000   1.0602945      0.0023323615  -0.002968882    20.181552      18.607014      1.5745373     -1.8979008      16720.56     
    157000   0.98174318     0.0023323615   0.00030203268  20.131171      18.673283      1.4578886     -1.8486444      16669.795    
    158000   0.86800628     0.0023323615   0.0040948086   19.780742      18.491752      1.2889893     -2.0111361      16606.285    
    159000   0.90142227     0.0023323615  -0.0031303001   19.952607      18.613995      1.3386121     -2.0231216      17182.931    
    160000   0.86684228     0.0023323615  -0.0013709489   20.049105      18.761845      1.2872608     -1.8613303      17469.471    
    161000   0.93666567     0.0023323615   0.00090084998  20.040539      18.64959       1.3909485     -1.9193236      16735.36     
    162000   1.0524798      0.0023323615   0.00084702212  20.250101      18.687169      1.5629325     -1.8171578      16799.816    
    163000   1.0997985      0.0023323615  -0.00014291711  20.441297      18.808096      1.6332007     -1.7275886      16649.984    
    164000   1.1256995      0.0023323615   0.0014736292   20.144381      18.472717      1.6716638     -1.9517328      16653.602    
    165000   1.0776825      0.0023323615  -0.0030818775   20.224278      18.62392       1.6003585     -1.9943322      17309.672    
    166000   0.8879957      0.0023323615  -0.003121798    20.096283      18.77761       1.3186736     -1.723449       17112.57     
    167000   0.97581879     0.0023323615  -0.0012028333   20.02606       18.576969      1.4490909     -1.8108442      16872.962    
    168000   0.99694369     0.0023323615  -0.0042097193   20.312966      18.832504      1.4804614     -1.7601524      16841.87     
    169000   1.0929134      0.0023323615   0.0049508849   20.025393      18.402417      1.6229765     -2.0843779      16771.159    
    170000   0.91891442     0.0023323615   0.0020589223   20.251018      18.88643       1.3645879     -1.6012032      16837.872    
    171000   1.1446234      0.0023323615  -0.00028633455  20.466911      18.767145      1.6997657     -1.7321133      16847.768    
    172000   0.96037023     0.0023323615  -0.0015767671   20.020612      18.594462      1.4261498     -1.8567891      17484.601    
    173000   1.0115956      0.0023323615  -0.00055329173  20.460543      18.958323      1.5022195     -1.508647       17489.439    
    174000   0.97399518     0.0023323615   0.0038102212   19.999919      18.553536      1.4463828     -1.9388959      16910.276    
    175000   1.1053797      0.0023323615   0.002518562    20.182298      18.540809      1.6414889     -1.9195553      16686.351    
    176000   0.96621878     0.0023323615  -0.0048387342   19.908547      18.473712      1.4348349     -2.0107033      17112.546    
    177000   1.1222468      0.0023323615   0.0022771731   20.496719      18.830183      1.6665365     -1.7103738      17216.197    
    178000   1.1388348      0.0023323615  -0.0031270656   20.489441      18.798271      1.6911697     -1.7397861      17825.028    
    179000   0.97735051     0.0023323615  -0.0028178438   20.199205      18.747839      1.4513655     -1.8032215      17865.883    
    180000   1.1380947      0.0023323615   0.0034220979   20.285539      18.595468      1.6900706     -1.9219332      17695.136    
    181000   1.0463453      0.0023323615  -0.0035818365   20.036664      18.482841      1.5538227     -1.9391124      17482.684    
    182000   0.97869317     0.0023323615   0.0020612156   20.134565      18.681206      1.4533594     -1.8247299      17670.306    
    183000   1.0261156      0.0023323615  -0.0024875033   20.32801       18.804229      1.5237817     -1.7674171      17772.247    
    184000   1.1616107      0.0023323615   0.0023759897   20.371887      18.646895      1.7249918     -1.8081123      17620.286    
    185000   0.99963623     0.0023323615   0.0008344912   20.153505      18.669045      1.4844598     -1.8928073      17516.605    
    186000   1.0706378      0.0023323615  -0.00051106474  20.157282      18.567385      1.5898972     -1.8840514      17335.885    
    187000   1.0990546      0.0023323615  -0.0012398304   20.469684      18.837588      1.632096      -1.7288859      17334.84     
    188000   1.0148726      0.0023323615   0.00095761101  20.029177      18.522092      1.5070858     -1.9567031      17557.453    
    189000   0.893172       0.0023323615  -0.0015337409   19.774978      18.448617      1.3263604     -2.0391754      17531.035    
    190000   0.95729251     0.0023323615  -0.00053135923  19.910581      18.489002      1.4215794     -2.0394748      17648.632    
    191000   0.99446651     0.0023323615  -0.0017888214   20.575128      19.098346      1.4767828     -1.5778174      17417.322    
    192000   1.0841728      0.0023323615   0.0012492223   20.26801       18.658013      1.6099967     -1.8905986      17724.717    
    193000   0.95024441     0.0023323615   0.00084994659  20.022091      18.610978      1.4111129     -1.8897288      16985.724    
    194000   0.91284585     0.0023323615  -0.00076575365  20.146452      18.790876      1.3555761     -1.762347       17002.217    
    195000   1.1334372      0.0023323615  -0.0031539491   20.386502      18.703347      1.6831542     -1.8283589      17004.659    
    196000   0.93927158     0.0023323615   0.003807518    20.516832      19.122014      1.3948183     -1.5173876      17105.587    
    197000   1.0350813      0.0023323615  -5.9803368e-05  20.096898      18.559802      1.5370958     -1.9537837      17156.282    
    198000   1.0309455      0.0023323615  -0.003243732    20.182289      18.651335      1.530954      -1.961696       16776.501    
    199000   0.97572587     0.0023323615  -0.0030389145   19.944588      18.495636      1.4489529     -2.081665       16788.338    
    200000   0.95352963     0.0023323615  -0.00068805188  19.884001      18.46801       1.4159915     -1.9489991      16740.51     
    201000   0.8983266      0.0023323615  -0.0043242012   19.737613      18.403598      1.334015      -2.1097902      16694.475    
    202000   0.89580063     0.0023323615   0.0012849829   19.731762      18.401498      1.3302639     -2.1611429      16663.719    
    203000   1.0368889      0.0023323615   0.0029515304   20.111039      18.571259      1.53978       -1.8964413      16706.868    
    204000   0.9962355      0.0023323615  -9.966674e-05   19.935994      18.456584      1.4794097     -2.063257       17372.223    
    205000   1.0279142      0.0023323615   0.0030880988   20.124207      18.597755      1.5264526     -1.9851672      17291.773    
    206000   0.92808473     0.0023323615  -0.0073824991   20.186948      18.808743      1.3782058     -1.817542       16687.646    
    207000   1.0028909      0.0023323615   0.0024657125   20.010038      18.520745      1.489293      -2.0695794      16710.127    
    208000   0.84178868     0.0023323615  -0.0022603539   19.952885      18.702829      1.2500562     -1.9576783      16771.692    
    209000   1.0688819      0.0023323615   0.0015108282   20.482881      18.895591      1.5872897     -1.8736204      16712.992    
    210000   0.97043819     0.0023323615   0.0021386154   20.216384      18.775283      1.4411007     -1.7797173      17267.832    
    211000   1.1027651      0.0023323615   0.0012146294   20.234136      18.59653       1.6376061     -1.8772817      16961.08     
    212000   0.924994       0.0023323615   0.0041593842   19.978726      18.60511       1.3736161     -1.8550807      16953.34     
    213000   1.0350232      0.0023323615  -0.0023364295   20.310996      18.773987      1.5370095     -1.8013757      16905.696    
    214000   0.94165915     0.0023323615  -0.0049516674   20.014505      18.616141      1.3983638     -1.8272527      16781.668    
    215000   0.95241357     0.0023323615  -0.0027809887   20.145792      18.731457      1.4143341     -1.8188295      16793.29     
    216000   1.0080293      0.0023323615  -0.0017660954   20.191174      18.69425       1.4969235     -1.8259861      16925.474    
    217000   1.0737375      0.0023323615  -0.0027418078   20.152525      18.558025      1.5945002     -1.9440475      17578.368    
    218000   0.95364367     0.0023323615  -0.0033147516   20.112488      18.696327      1.4161609     -1.9107736      17433.844    
    219000   0.85279703     0.0023323615  -0.0011348158   19.73262       18.466217      1.2664036     -2.0863522      17156.585    
    220000   0.94978147     0.0023323615  -0.0016982771   20.028337      18.617911      1.4104255     -2.0138082      17076.237    
    221000   0.91499545     0.0023323615   0.0033519936   20.066372      18.707604      1.3587682     -1.988891       17098.469    
    222000   1.0597772      0.0023323615  -0.0032409959   19.812459      18.23869       1.5737691     -2.2533039      17556.91     
    223000   1.0209096      0.0023323615   0.0013382076   20.154399      18.638348      1.5160508     -1.8768262      17931.079    
    224000   0.86693477     0.0023323615  -0.00068599692  19.871107      18.583709      1.2873981     -2.0376203      17717.21     
    225000   1.0838684      0.0023323615   7.3871971e-05  20.132915      18.52337       1.6095445     -2.0317424      17533.267    
    226000   0.98539112     0.0023323615  -0.0010276056   20.054903      18.591598      1.4633058     -1.9616232      17415.687    
    227000   1.0841851      0.0023323615   0.001665168    20.12946       18.519445      1.6100148     -1.9053948      17625.156    
    228000   0.9547584      0.0023323615   0.00042982789  20.373308      18.955492      1.4178162     -1.5500492      18035.702    
    229000   0.97472066     0.0023323615  -0.0024945588   20.443139      18.995679      1.4474602     -1.5661475      18437.716    
    230000   1.0219814      0.0023323615   0.001795586    20.495543      18.977901      1.5176423     -1.6006384      17430.875    
    231000   1.0407778      0.0023323615   0.0018709274   20.314704      18.769149      1.5455551     -1.7784837      17522.152    
    232000   1.0481471      0.0023323615  -0.00027450469  20.541536      18.985038      1.5564984     -1.4196607      17527.248    
    233000   0.96764852     0.0023323615   0.0003612092   19.981127      18.544169      1.4369581     -1.8675161      17724.163    
    234000   1.0756925      0.0023323615   0.0030804709   20.217381      18.619978      1.5974034     -1.9175657      17532.775    
    235000   0.87205016     0.0023323615   0.00064708004  19.931517      18.636522      1.2949945     -1.8683619      17351.349    
    236000   0.99283214     0.0023323615  -0.00044823054  19.821728      18.347372      1.4743557     -2.1098606      17647.571    
    237000   1.0415803      0.0023323615  -0.0016008835   20.121646      18.574899      1.5467467     -1.9504723      17436.887    
    238000   0.94250825     0.0023323615  -0.00042454665  19.869858      18.470233      1.3996247     -2.0386572      17120.615    
    239000   1.1168109      0.0023323615  -0.00082710567  20.340911      18.682447      1.6584642     -1.8438294      16994.539    
    240000   1.0573392      0.0023323615  -0.0023221602   20.301156      18.731008      1.5701487     -1.8562053      16979.648    
    241000   0.89696301     0.0023323615  -0.00048989238  19.931453      18.599462      1.3319901     -1.8904126      17021.782    
    242000   0.89250821     0.0023323615   0.0035211842   19.990286      18.664912      1.3253747     -1.8632807      17149.611    
    243000   1.031256       0.0023323615  -0.0015881433   20.124226      18.592811      1.5314151     -1.890387       16941.372    
    244000   0.96924898     0.0023323615  -0.0044566318   20.05554       18.616205      1.4393347     -1.9480788      16793.671    
    245000   1.0431166      0.0023323615   0.0022957927   20.068157      18.519128      1.5490282     -1.958158       16828.609    
    246000   0.96959144     0.0023323615   0.0069107199   20.222746      18.782903      1.4398433     -1.8016985      16887.133    
    247000   1.0182671      0.0023323615   0.00013742932  20.082529      18.570403      1.5121266     -1.8503515      16959.496    
    248000   1.0107726      0.0023323615  -0.00022055958  20.048419      18.547422      1.5009973     -2.0080937      16965.335    
    249000   0.98101279     0.0023323615  -0.0013695563   19.760094      18.30329       1.456804      -2.243388       17723.651    
    250000   0.90883645     0.0023323615  -0.0069679618   19.99611       18.646488      1.3496221     -1.944549       17886.063    
    251000   0.88071881     0.0023323615   0.00058795255  20.125938      18.81807       1.3078674     -1.617721       17185.538    
    252000   1.038626       0.0023323615  -0.0012482301   20.098592      18.556232      1.5423597     -1.8853286      17062.249    
    253000   0.85622549     0.0023323615  -0.001148919    20.08808       18.816585      1.2714949     -1.6418168      16912.173    
    254000   0.95871749     0.0023323615   0.00071026449  20.00772       18.584024      1.4236955     -1.781315       16972.617    
    255000   1.0920243      0.0023323615   0.00022263295  19.909857      18.288201      1.6216561     -2.1506177      17158.5      
    256000   0.96609198     0.0023323615  -0.0018487569   20.194516      18.75987       1.4346466     -1.7964106      16851.224    
    257000   0.89817736     0.0023323615  -0.0017630012   20.087637      18.753844      1.3337934     -1.80552        16875.73     
    258000   1.0213439      0.0023323615   0.0020403816   20.017617      18.500922      1.5166956     -1.9564489      16830.757    
    259000   1.0899534      0.0023323615   0.00255161     20.126397      18.507816      1.6185808     -1.9051057      16746.147    
    260000   0.8260642      0.0023323615  -0.0014863412   19.916914      18.690209      1.2267053     -1.8183257      16769.581    
    261000   1.0399284      0.0023323615  -0.00096319552  20.089107      18.544813      1.5442937     -2.0129411      16824.827    
    262000   0.99603644     0.0023323615  -0.0010311475   19.970907      18.491793      1.4791141     -2.0347821      17240.525    
    263000   0.97665217     0.0023323615  -0.0028082579   20.129994      18.679665      1.4503285     -1.8549188      17869.015    
    264000   0.97020497     0.0023323615   0.0041350037   19.990114      18.54936       1.4407544     -2.0377526      17230.353    
    265000   0.9347551      0.0023323615  -0.0020179836   20.188678      18.800566      1.3881113     -1.6708695      17102.623    
    266000   0.93690917     0.0023323615   0.0003157487   20.164969      18.773659      1.3913101     -1.7082354      17324.683    
    267000   1.0122019      0.0023323615   0.0038957353   20.030582      18.527462      1.5031199     -1.8837664      17961.369    
    268000   1.0349013      0.0023323615  -0.0010251075   20.254102      18.717274      1.5368285     -1.7823327      17913.994    
    269000   0.99826149     0.0023323615  -0.0007260754   20.151449      18.669031      1.4824183     -1.8155063      17971.191    
    270000   0.89238939     0.0023323615   0.0011224558   20.337727      19.012528      1.3251982     -1.4430426      17777.276    
    271000   0.97817511     0.0023323615   0.0029510466   20.203367      18.750777      1.45259       -1.713753       17493.28     
    272000   1.1239035      0.0023323615   0.0021745014   20.77475       19.105753      1.6689967     -1.4322307      17749.807    
    273000   0.98736433     0.0023323615  -0.00077644675  20.075979      18.609743      1.466236      -1.8804228      17971.686    
    274000   0.89495693     0.0023323615   0.00033514438  19.904678      18.575667      1.329011      -1.896776       17776.637    
    275000   0.79111746     0.0023323615   0.00042699388  19.755072      18.580262      1.1748094     -1.874011       17587.974    
    276000   0.91013154     0.0023323615  -0.00047709024  20.133736      18.782191      1.3515453     -1.7904482      17411.3      
    277000   1.0437385      0.0023323615  -0.0010097888   20.055684      18.505733      1.5499517     -1.9598272      17484.218    
    278000   0.90099154     0.0023323615   0.0013666152   19.971183      18.63321       1.3379724     -1.9079755      17664.318    
    279000   1.0157356      0.0023323615  -0.0055041575   20.248797      18.740429      1.5083674     -1.8547838      17355.358    
    280000   1.0943255      0.0023323615  -0.00053482137  20.155733      18.53066       1.6250734     -1.9286017      17290.158    
    281000   0.9327722      0.0023323615  -0.00018492154  19.695112      18.309945      1.3851667     -2.1803005      17412.102    
    282000   0.79604822     0.0023323615  -0.0018432671   19.833895      18.651763      1.1821316     -1.8494984      17485.287    
    283000   0.97498758     0.0023323615  -0.00077845008  19.997818      18.549961      1.4478566     -1.8874212      17096.202    
    284000   0.89530955     0.0023323615   0.0055233129   20.051205      18.72167       1.3295347     -1.8452382      16911.717    
    285000   0.8423549      0.0023323615   0.00081477519  19.770206      18.519309      1.250897      -2.0385808      16654.63     
    286000   1.1019892      0.0023323615   0.00061336019  20.139286      18.502832      1.636454      -1.9145616      17090.228    
    287000   0.93576291     0.0023323615  -0.00016215549  20.089735      18.700127      1.3896079     -1.8592835      16766.229    
    288000   1.0248399      0.0023323615  -0.0022592239   20.125516      18.603629      1.5218872     -1.8677903      16872.364    
    289000   1.0007286      0.0023323615   0.0033024966   20.198646      18.712564      1.4860819     -1.8267495      16751.428    
    290000   1.0059841      0.0023323615  -0.0016723607   20.047915      18.554028      1.4938864     -1.8927332      16760.973    
    291000   0.83436127     0.0023323615  -0.0028815925   19.696535      18.457508      1.2390265     -1.9425121      16762.211    
    292000   1.0358367      0.0023323615   0.0019769317   20.084244      18.546026      1.5382175     -2.0197384      16734.689    
    293000   0.9779943      0.0023323615  -2.0799758e-05  19.783203      18.330881      1.4523215     -2.1325953      16866.154    
    294000   0.92275731     0.0023323615  -0.0038903908   19.678922      18.308627      1.3702946     -2.2057575      17239.146    
    295000   0.91882293     0.0023323615   0.0037870302   20.032682      18.66823       1.3644521     -1.9914379      17514.183    
    296000   0.99480016     0.0023323615  -0.002570594    20.143461      18.666183      1.4772782     -1.8546807      16817.856    
    297000   1.0119813      0.0023323615   0.00072354249  20.414729      18.911937      1.5027922     -1.4748433      17050.418    
    298000   1.0185385      0.0023323615  -0.0011038095   20.211162      18.698632      1.5125297     -1.9378496      16976.566    
    299000   0.96799143     0.0023323615   0.0023146832   19.749141      18.311674      1.4374673     -2.2071137      17389.393    
    300000   0.89109726     0.0023323615  -0.0039460991   20.108657      18.785378      1.3232794     -1.7247929      17106.452    
    301000   0.97459482     0.0023323615   0.001106193    20.269863      18.822589      1.4472733     -1.7051426      17010.504    
    302000   0.8725529      0.0023323615   0.00057501427  19.808545      18.512804      1.2957411     -2.0107947      16974.505    
    303000   0.98387357     0.0023323615  -0.0034660874   19.880681      18.419629      1.4610523     -1.9937943      16990.547    
    304000   1.0775841      0.0023323615   0.00124742     20.222681      18.622468      1.6002124     -2.0128263      17008.831    
    305000   1.0538095      0.0023323615   0.00056773526  20.096307      18.531399      1.5649072     -1.8890036      16939.785    
    306000   1.0076872      0.0023323615  -0.0027515349   20.006141      18.509725      1.4964155     -2.0099707      16839.301    
    307000   1.0810518      0.0023323615  -0.0011318283   20.011588      18.406227      1.6053619     -2.1160146      17591.328    
    308000   1.0264536      0.0023323615  -0.0016302359   20.17027       18.645986      1.5242836     -1.8700224      17747.993    
    309000   0.98176214     0.0023323615  -0.001496458    20.035448      18.577531      1.4579168     -2.0005082      17151.624    
    310000   1.0337142      0.0023323615  -0.0012184752   20.119556      18.58449       1.5350656     -1.9067268      17089.16     
    311000   0.96109151     0.0023323615  -0.0019497899   20.240321      18.8131        1.4272209     -1.8571151      17486.032    
    312000   1.0886973      0.0023323615   0.0012414856   20.318368      18.701652      1.6167156     -1.7706881      17840.7      
    313000   0.93797618     0.0023323615   0.0023630825   20.04906       18.656165      1.3928946     -1.8714842      18033.678    
    314000   0.98927897     0.0023323615   0.0031028772   19.81172       18.342641      1.4690793     -2.0493112      17887.149    
    315000   1.0137616      0.0023323615   0.0018863146   19.816586      18.31115       1.505436      -2.0525942      17308.592    
    316000   0.94819101     0.0023323615   0.0023932422   19.969354      18.56129       1.4080637     -1.8944585      17579.443    
    317000   0.90555951     0.0023323615  -0.00069036427  20.253609      18.908853      1.3447559     -1.6622079      17675.031    
    318000   1.0173089      0.0023323615   1.3696242e-05  20.251615      18.740911      1.5107037     -1.7580485      17866.207    
    319000   0.98690917     0.0023323615   0.00052793126  20.059182      18.593621      1.4655601     -1.8882028      17415.14     
    320000   1.0303436      0.0023323615  -0.0027855507   19.998807      18.468746      1.5300602     -1.9958256      17416.036    
    321000   0.98859976     0.0023323615   0.0013441367   20.112176      18.644105      1.4680706     -1.8522863      17512.413    
    322000   0.92843769     0.0023323615   0.00050028687  19.783165      18.404435      1.37873       -1.9785831      17475.139    
    323000   1.0171485      0.0023323615   0.001665208    19.888286      18.377821      1.5104655     -2.0883139      17098.484    
    324000   0.95522697     0.0023323615   0.00027737754  20.051328      18.632816      1.418512      -1.8945519      17237        
    325000   1.0031538      0.0023323615   0.0033262127   20.183504      18.69382       1.4896835     -1.8568072      17317.847    
    326000   1.0983594      0.0023323615   0.003072788    20.037714      18.406651      1.6310637     -2.0243852      17496.374    
    327000   1.1374683      0.0023323615  -0.00074101897  20.074879      18.385738      1.6891404     -2.1942259      17349.11     
    328000   1.0005113      0.0023323615   0.0050465943   20.062013      18.576254      1.4857593     -2.0419857      16817.29     
    329000   1.1270582      0.0023323615   0.00061034341  19.975847      18.302166      1.6736814     -2.1520492      16945.491    
    330000   1.1071438      0.0023323615  -0.0019395959   20.350983      18.706874      1.6441085     -1.8374599      16985.149    
    331000   0.88046708     0.0023323615   0.0013190062   19.977055      18.669561      1.3074936     -1.9369061      17031.574    
    332000   0.96608688     0.0023323615   0.0035643313   20.168983      18.734344      1.434639      -1.7481178      16465.345    
    333000   0.99960788     0.0023323615  -0.0009187459   20.078441      18.594024      1.4844177     -1.8980122      16861.7      
    334000   0.89960401     0.0023323615  -0.0010885458   20.103007      18.767095      1.335912      -1.7962087      16795.856    
    335000   1.0433209      0.0023323615   0.00056467423  20.057772      18.50844       1.5493316     -1.9114191      16791.089    
    336000   1.009241       0.0023323615   8.5730125e-06  20.147013      18.64829       1.4987229     -1.8154438      16765.165    
    337000   1.079686       0.0023323615   0.0062443866   20.089865      18.486531      1.6033337     -1.9146744      16878.906    
    338000   1.083578       0.0023323615   0.0027160852   20.197446      18.588332      1.6091133     -1.811634       16892.892    
    339000   0.90805184     0.0023323615  -0.0061639463   20.070819      18.722362      1.348457      -1.7334486      17569.37     
    340000   1.060954       0.0023323615  -0.0018592168   20.37064       18.795124      1.5755166     -1.7924069      17450.08     
    341000   1.1195696      0.0023323615   0.0040340604   20.398656      18.736095      1.6625608     -1.7806972      16914.208    
    342000   0.99640377     0.0023323615   0.0021437697   20.179097      18.699437      1.4796596     -1.8604031      16903.466    
    343000   0.9162637      0.0023323615  -0.00086850647  19.947549      18.586897      1.3606516     -1.9721065      17103.139    
    344000   1.0323386      0.0023323615   0.0015729131   20.121861      18.588838      1.5330228     -1.8815505      17249.407    
    345000   1.0668427      0.0023323615   0.0058485676   20.445528      18.861267      1.5842614     -1.6577826      16960.876    
    346000   0.96583391     0.0023323615   0.00053028282  20.168337      18.734074      1.4342634     -1.9008118      17002.101    
    347000   0.96075831     0.0023323615   0.00054708515  19.911173      18.484447      1.4267261     -2.0077144      16997.662    
    348000   1.0245747      0.0023323615   0.0018008344   20.102191      18.580698      1.5214934     -1.9254238      16931.061    
    349000   0.94272019     0.0023323615  -0.00068455828  19.925289      18.525349      1.3999395     -2.1031812      16977.805    
    350000   0.95861118     0.0023323615  -0.0024500107   20.3035        18.879962      1.4235376     -1.6181497      17117.147    
    351000   1.001305       0.0023323615  -0.0031365229   20.214139      18.727201      1.486938      -1.735354       17035.967    
    352000   0.91719967     0.0023323615  -0.0024700152   19.878447      18.516405      1.3620415     -1.9171626      17748.333    
    353000   1.0359048      0.0023323615  -0.0021584039   20.486732      18.948413      1.5383187     -1.5958384      17348.348    
    354000   0.92572857     0.0023323615   0.00022552098  20.051122      18.676415      1.3747069     -1.9124722      17141.023    
    355000   0.96599953     0.0023323615   0.00074836897  19.799584      18.365075      1.4345093     -2.0490489      17235.836    
    356000   0.95150304     0.0023323615   0.005406535    20.205415      18.792433      1.412982      -1.8307137      17852.115    
    357000   0.974383       0.0023323615   0.00076739209  20.226408      18.779449      1.4469588     -1.8181596      17812.069    
    358000   1.1818323      0.0023323615   0.0033560719   20.455158      18.700137      1.755021      -1.9176578      17939.217    
    359000   1.0816347      0.0023323615  -0.00019327428  20.066217      18.459989      1.6062275     -2.0887237      17838.124    
    360000   1.1692844      0.0023323615  -0.0028584417   20.313876      18.577489      1.7363873     -1.872452       17732.782    
    361000   0.90229038     0.0023323615  -0.0022256429   19.991308      18.651407      1.3399012     -1.9238969      17695.374    
    362000   0.90415858     0.0023323615  -0.0011184393   20.047453      18.704778      1.3426755     -1.8121531      17855.372    
    363000   1.1009162      0.0023323615  -0.00094079173  20.432585      18.797725      1.6348605     -1.7301691      17922.084    
    364000   0.99733387     0.0023323615  -0.0011098796   20.366855      18.885814      1.4810408     -1.7492081      17664.53     
    365000   1.0691158      0.0023323615   0.0050113971   20.139698      18.552061      1.587637      -1.9030563      17599.762    
    366000   0.95068928     0.0023323615  -0.0016049069   20.417241      19.005467      1.4117736     -1.7166013      17757.048    
    367000   0.89274529     0.0023323615   0.0031756924   19.853968      18.528241      1.3257268     -2.0077629      17877.596    
    368000   0.96259361     0.0023323615   0.00084839789  19.904373      18.474921      1.4294515     -2.0065003      17708.798    
    369000   0.98733569     0.0023323615   0.00096176846  19.96253       18.496336      1.4661935     -2.0191172      17677.564    
    370000   1.0013316      0.0023323615   0.0013478222   20.27612       18.789142      1.4869774     -1.7998883      17689.24     
    371000   0.95581556     0.0023323615  -0.0026639246   20.379663      18.960277      1.4193861     -1.7102217      17591.173    
    372000   1.0628517      0.0023323615   0.0030549097   20.206977      18.628642      1.5783348     -1.8540903      17187.097    
    373000   0.87919284     0.0023323615  -0.0051678508   19.881444      18.575843      1.3056014     -1.9627565      16880.019    
    374000   1.0716305      0.0023323615  -0.0014645354   20.046852      18.455481      1.5913712     -2.0839157      16989.151    
    375000   0.92278955     0.0023323615   0.0026478759   19.823027      18.452685      1.3703425     -1.8862706      17196.804    
    376000   1.0246188      0.0023323615  -0.0025153012   20.062576      18.541017      1.521559      -2.052689       16961.415    
    377000   1.0339485      0.0023323615   0.0041669483   20.212885      18.677471      1.5354135     -1.7755317      16707.221    
    378000   0.98771173     0.0023323615   0.0061867531   20.042559      18.575807      1.4667519     -1.9653775      16871.314    
    379000   1.0058141      0.0023323615   0.0031370657   20.27148       18.777846      1.4936339     -1.8135471      16856.017    
    380000   0.94737106     0.0023323615   0.00060411986  20.00298       18.596134      1.406846      -1.8526986      16877.907    
    381000   0.96031232     0.0023323615  -0.00077891465  19.864078      18.438014      1.4260638     -2.0134657      16839.131    
    382000   1.0000581      0.0023323615   0.0027895062   19.993898      18.508811      1.4850863     -2.0168968      16833.672    
    383000   1.0536189      0.0023323615  -0.0012957969   20.026889      18.462265      1.564624      -2.102819       16770.939    
    384000   0.90449651     0.0023323615  -0.0011288071   19.79105       18.447872      1.3431773     -2.1360226      17846.433    
    385000   1.0806206      0.0023323615   0.0014935008   20.485549      18.880827      1.6047215     -1.684958       17368.154    
    386000   1.0101957      0.0023323615   0.0033351947   20.385751      18.885611      1.5001407     -1.7251535      17057.977    
    387000   0.8681557      0.0023323615   0.0032898632   19.817568      18.528357      1.2892112     -2.0065452      17000.352    
    388000   1.0249203      0.0023323615  -0.0042869324   20.093899      18.571893      1.5220066     -1.9622825      17318.619    
    389000   0.95261644     0.0023323615  -0.0014107222   19.807043      18.392407      1.4146354     -1.9790169      17085.269    
    390000   0.87081141     0.0023323615   0.0020119452   19.998216      18.705061      1.2931549     -1.8625346      16968.139    
    391000   0.97673889     0.0023323615  -0.0047774037   20.245265      18.794808      1.4504573     -1.7119833      16908.133    
    392000   1.0025897      0.0023323615   0.0011291438   20.234257      18.745411      1.4888456     -1.7941457      16970.609    
    393000   0.92090331     0.0023323615  -0.0013081074   19.977912      18.610371      1.3675414     -1.89763        16900.375    
    394000   1.0219727      0.0023323615   0.0008952796   19.951358      18.433728      1.5176295     -2.0098174      16942.013    
    395000   0.86157687     0.0023323615   0.0042036357   20.048624      18.769182      1.2794417     -1.8062012      17066.467    
    396000   1.1137889      0.0023323615   0.0035084705   20.142114      18.488137      1.6539765     -1.983804       17150.183    
    397000   1.1142875      0.0023323615   0.0022999228   20.132262      18.477545      1.6547169     -2.0179504      17967.926    
    398000   1.0271876      0.0023323615  -0.0047390623   20.138465      18.613092      1.5253736     -1.9831894      17738.303    
    399000   1.163251       0.0023323615  -0.0027538243   20.301228      18.5738        1.7274278     -1.861182       17200.683    
    400000   1.0312515      0.0023323615  -0.0035687807   20.02037       18.488961      1.5314085     -1.9937648      17312.804    
    401000   1.0235582      0.0023323615   0.0025156209   20.068681      18.548697      1.519984      -2.0940277      18030.841    
    402000   0.92598805     0.0023323615  -0.0012496953   19.752306      18.377214      1.3750923     -2.082486       17893.127    
    403000   1.2371191      0.0023323615  -0.0020894605   20.580827      18.743706      1.8371218     -1.8275982      17846.959    
    404000   1.0458123      0.0023323615  -0.0018791189   20.339286      18.786255      1.5530313     -1.7823796      17909.301    
    405000   0.95373973     0.0023323615   0.0040810186   19.874491      18.458188      1.4163035     -1.9689706      17719.148    
    406000   0.92644329     0.0023323615   0.00065967216  19.85014       18.474371      1.3757683     -1.9687571      17770.029    
    407000   1.1106108      0.0023323615   0.00097168682  20.366973      18.717716      1.649257      -1.8567318      18147.024    
    408000   1.0112955      0.0023323615   0.0036217233   20.128844      18.62707       1.5017738     -1.8830064      18033.424    
    409000   1.1535693      0.0023323615   0.00019672409  20.317942      18.604892      1.7130504     -1.8605453      17602.052    
    410000   1.0202348      0.0023323615  -0.0035749869   20.206775      18.691726      1.5150487     -1.8208001      17525.918    
[...]
    861000   1.0942803      0.0023323615   0.0014910038   20.240513      18.615507      1.6250063     -1.8740335      17430.212    
    862000   0.96801976     0.0023323615  -0.0033420647   20.082763      18.645254      1.4375093     -1.930272       17616.371    
    863000   0.94157503     0.0023323615   0.0011125713   19.901515      18.503276      1.3982389     -1.9525554      17500.506    
    864000   1.0767479      0.0023323615  -0.00016776384  20.458427      18.859456      1.5989706     -1.6470124      17452.185    
    865000   1.0109482      0.0023323615  -0.0028384511   20.438706      18.937448      1.5012581     -1.6858337      17502.108    
    866000   0.94950165     0.0023323615   0.0028657119   20.199951      18.789941      1.41001       -1.7790689      17430.872    
    867000   1.0507706      0.0023323615   0.00039550362  20.299692      18.739297      1.5603944     -1.812234       17720.435    
    868000   1.1007214      0.0023323615  -0.0058578624   20.635063      19.000492      1.6345714     -1.5437828      17368.368    
    869000   1.0039293      0.0023323615   0.0013714948   20.090049      18.599214      1.490835      -1.8542497      16765.97     
    870000   0.90073019     0.0023323615  -0.0032726104   20.188187      18.850603      1.3375843     -1.7654123      16747.538    
    871000   0.91677251     0.0023323615  -0.00027332228  19.732103      18.370696      1.3614072     -1.9834964      16775.289    
    872000   0.98365489     0.0023323615  -0.002622891    20.117331      18.656604      1.4607275     -1.9926272      16795.562    
    873000   1.083247       0.0023323615  -0.00065233024  20.305594      18.696972      1.6086218     -1.8381859      16941.769    
    874000   1.0831746      0.0023323615   0.006433021    20.371092      18.762578      1.6085143     -1.800508       17026.501    
    875000   1.0243781      0.0023323615  -0.0028190773   20.194165      18.672963      1.5212015     -1.7664985      17075.486    
    876000   1.1343334      0.0023323615  -0.0016462999   20.376136      18.691651      1.6844852     -1.8334698      16896.227    
    877000   0.88875723     0.0023323615   0.0010528443   19.802148      18.482343      1.3198045     -2.0112929      16709.414    
    878000   1.0551143      0.0023323615  -0.0014404339   20.507676      18.940831      1.5668448     -1.5987369      16859.168    
    879000   1.0821367      0.0023323615   0.0013254998   20.694811      19.087838      1.606973      -1.5361306      17126.247    
    880000   0.91532606     0.0023323615   0.00045015465  20.33748       18.978221      1.3592592     -1.5317125      17980.964    
    881000   0.92285949     0.0023323615  -0.0007119489   20.016384      18.645937      1.3704463     -1.776552       17930.226    
    882000   1.0836137      0.0023323615   0.0012605588   20.663156      19.05399       1.6091663     -1.4992035      17136.497    
    883000   0.85993985     0.0023323615   0.0030108553   20.068898      18.791887      1.2770107     -1.7324728      16915.025    
    884000   0.8863675      0.0023323615   0.0025048439   19.907036      18.590781      1.3162557     -1.9316991      16941.812    
    885000   0.96617774     0.0023323615   0.0013299149   19.88395       18.449176      1.4347739     -1.9546907      16831.098    
    886000   1.1406294      0.0023323615   0.00061359207  20.37736       18.683526      1.6938346     -1.9814694      16792.762    
    887000   0.90579481     0.0023323615  -0.0013952316   20.171452      18.826346      1.3451053     -1.752524       16915.506    
    888000   1.1504748      0.0023323615   0.0015822353   20.437915      18.72946       1.708455      -1.7420567      16926.84     
    889000   1.2114291      0.0023323615   0.00021095391  20.370551      18.571578      1.7989723     -1.8314113      16936.114    
    890000   1.0626628      0.0023323615   0.0010838206   20.122716      18.544662      1.5780542     -2.0036417      16971.047    
    891000   0.91761832     0.0023323615   0.0027221549   20.320271      18.957608      1.3626632     -1.6976017      16964.174    
    892000   1.0076621      0.0023323615  -0.00073227442  20.259968      18.76359       1.4963781     -1.7840806      17052.012    
    893000   0.97646663     0.0023323615   0.00082479678  20.240384      18.790331      1.4500529     -1.690935       17974.734    
    894000   0.98967422     0.0023323615  -0.0010481518   20.250237      18.780571      1.4696662     -1.6445267      18080.336    
    895000   0.94122284     0.0023323615  -0.0047048653   20.154287      18.756571      1.3977159     -1.8415708      17802.767    
    896000   0.87538513     0.0023323615  -0.0021539593   20.101548      18.801601      1.2999469     -1.8504835      17378.962    
    897000   1.0372599      0.0023323615   0.0023682353   20.170849      18.630518      1.540331      -1.8946354      17425.821    
    898000   0.89442908     0.0023323615  -0.0019830806   19.754423      18.426196      1.3282272     -2.08603        17548.193    
    899000   0.92996223     0.0023323615  -0.0030521758   20.011463      18.630469      1.3809939     -1.886509       17943.909    
    900000   1.0169535      0.0023323615  -0.00084441845  20.047361      18.537186      1.5101759     -1.9406608      18063.318    
    901000   0.90939221     0.0023323615   0.001811216    19.962601      18.612154      1.3504474     -1.8502327      17816.714    
    902000   0.93599277     0.0023323615   0.0030627428   20.254358      18.864409      1.3899493     -1.8319523      17845.37     
    903000   1.0556295      0.0023323615   0.0016801964   20.36899       18.80138       1.5676099     -1.7576908      17710.439    
    904000   1.1156864      0.0023323615  -0.0018213187   20.282433      18.625639      1.6567943     -1.8358045      17699.387    
    905000   0.90696354     0.0023323615   0.0023059769   19.821639      18.474798      1.3468409     -1.9795103      17707.759    
    906000   0.9668947      0.0023323615  -0.0040283623   20.174382      18.738543      1.4358386     -1.7571754      17665.843    
    907000   0.84735198     0.0023323615   0.0018674157   19.912917      18.654599      1.2583177     -1.8322894      17367.996    
    908000   0.98360409     0.0023323615   0.00082333727  20.045433      18.584781      1.4606521     -1.8712265      17692.692    
    909000   0.93501291     0.0023323615   0.0023216512   20.091377      18.702883      1.3884942     -1.7617377      17553.816    
    910000   1.0552469      0.0023323615  -0.003908022    20.241152      18.67411       1.5670416     -1.8196001      17108.328    
    911000   0.91844472     0.0023323615  -0.0017414654   19.91774       18.553849      1.3638904     -1.913336       17253.283    
    912000   0.89632298     0.0023323615   0.0001212727   20.148857      18.817817      1.3310396     -1.6920927      17557.598    
    913000   0.8752796      0.0023323615   0.0029899751   19.871142      18.571352      1.2997902     -1.8842844      17420.179    
    914000   1.1166673      0.0023323615   0.0016625513   20.121705      18.463454      1.6582509     -2.0178189      16582.397    
    915000   0.93420638     0.0023323615   0.00096357984  20.068528      18.681232      1.3872965     -1.7842969      16838.025    
    916000   1.0831451      0.0023323615   9.1405496e-05  19.939653      18.331182      1.6084705     -2.0602547      16737.582    
    917000   1.0242404      0.0023323615  -0.0061034507   20.479737      18.95874       1.5209971     -1.7071821      16833.908    
    918000   0.9320868      0.0023323615  -0.0011143708   19.891862      18.507713      1.3841489     -2.0428852      16784.699    
    919000   0.90415303     0.0023323615  -0.0020137604   19.974562      18.631894      1.3426672     -1.85144        16630.92     
    920000   1.0450113      0.0023323615   0.0021260824   20.128167      18.576326      1.5518418     -1.9340632      16638.048    
    921000   0.95767974     0.0023323615  -0.0013157749   20.223098      18.800943      1.4221544     -1.6204657      16783.819    
    922000   0.95199765     0.0023323615   0.00068841683  20.304608      18.890892      1.4137165     -1.690335       16867.607    
    923000   1.1361197      0.0023323615   0.0012558825   20.243545      18.556407      1.6871377     -1.9366564      16872.266    
    924000   1.0473605      0.0023323615   0.0020500824   20.328362      18.773032      1.5553303     -1.7917853      16842.415    
    925000   0.77173789     0.0023323615   0.0053338942   19.782183      18.636153      1.1460308     -1.9306702      17719.862    
    926000   1.1420538      0.0023323615   4.3677109e-05  20.250711      18.554762      1.6959499     -2.0865489      17523.072    
    927000   1.0734494      0.0023323615   0.0054107173   20.505022      18.910949      1.5940724     -1.7818062      16614.332    
    928000   1.0119457      0.0023323615   0.0032727994   20.230533      18.727793      1.5027394     -1.6938199      16799.834    
    929000   0.86647078     0.0023323615  -0.0034416724   19.900388      18.613679      1.2867091     -1.949902       16729.893    
    930000   1.0936165      0.0023323615   0.0018674127   20.228703      18.604683      1.6240204     -1.9367508      16639.723    
    931000   1.1332584      0.0023323615  -0.0018743159   20.458993      18.776104      1.6828888     -1.814124       16737.318    
    932000   1.1302725      0.0023323615  -0.0026165793   20.29145       18.612995      1.6784547     -1.8890282      16766.336    
    933000   1.0704766      0.0023323615   0.00085056756  20.069661      18.480003      1.5896577     -1.9033529      16635.324    
    934000   1.0682289      0.0023323615   0.0026035182   20.53047       18.94415       1.58632       -1.570345       16850.758    
    935000   0.95337873     0.0023323615  -0.0038051207   20.002224      18.586457      1.4157674     -1.9573935      17003.584    
    936000   1.0776511      0.0023323615   0.0033731783   20.235628      18.635317      1.6003118     -1.8949868      16825.188    
    937000   0.96499746     0.0023323615  -0.0019449751   20.328407      18.895386      1.4330212     -1.6820292      17049.396    
    938000   1.0408113      0.0023323615   0.0026515953   19.997832      18.452227      1.5456047     -2.0169769      17925.963    
    939000   0.90474961     0.0023323615   0.0022230044   19.998108      18.654555      1.3435532     -1.9572738      17722.992    
    940000   0.98171592     0.0023323615   0.0025566472   20.217656      18.759807      1.4578481     -1.8151449      17461.868    
    941000   1.0392199      0.0023323615  -0.00044106291  20.301224      18.757982      1.5432416     -1.8060852      17071.24     
    942000   1.0431582      0.0023323615  -3.6158366e-05  20.056178      18.507088      1.54909       -1.8869964      17296.144    
    943000   0.89978224     0.0023323615  -0.002738871    20.095974      18.759797      1.3361766     -1.8456921      17674.051    
    944000   1.1250751      0.0023323615  -0.0014915858   20.343348      18.672612      1.6707366     -1.8532549      17874.106    
    945000   1.0167271      0.0023323615   0.003241134    20.239452      18.729613      1.5098397     -1.8075152      17718.129    
    946000   0.87745012     0.0023323615  -0.0006053325   19.926366      18.623353      1.3030134     -1.8841174      17818.18     
    947000   1.0143342      0.0023323615   0.0028932384   19.910573      18.404287      1.5062864     -1.979226       17751.345    
    948000   1.0008092      0.0023323615   0.0032358075   20.286637      18.800436      1.4862016     -1.767501       17595.251    
    949000   1.0015293      0.0023323615   0.00049595376  20.111019      18.623748      1.4872709     -1.9698621      17556.712    
    950000   1.0527085      0.0023323615  -0.0032007311   20.035146      18.471874      1.5632722     -2.0127251      17719.985    
    951000   0.92219112     0.0023323615   0.0020105612   20.234124      18.86467       1.3694538     -1.6867235      17717.974    
    952000   1.0234094      0.0023323615   0.0015840963   19.970861      18.451098      1.519763      -1.9913075      17782.984    
    953000   0.95691659     0.0023323615   0.0020506527   20.327418      18.906397      1.4210211     -1.5744981      17775.671    
    954000   1.0440771      0.0023323615  -0.0010334629   20.276292      18.725837      1.5504546     -1.7439813      17655.781    
    955000   1.159581       0.0023323615  -0.0016201329   20.400897      18.678919      1.7219777     -1.9094451      17522.174    
    956000   1.0187637      0.0023323615   0.001884811    20.210278      18.697414      1.5128641     -1.7773157      17577.288    
    957000   1.0799479      0.0023323615   0.0010069499   20.472497      18.868775      1.6037226     -1.6645633      17708.438    
    958000   1.0585617      0.0023323615   0.002878234    20.240628      18.668664      1.5719641     -1.7528398      17073.281    
    959000   0.96718073     0.0023323615  -0.0011462202   20.071701      18.635438      1.4362634     -1.9018322      16770.536    
    960000   1.0846961      0.0023323615  -0.0022071159   20.430215      18.819441      1.6107737     -1.7599265      16830.482    
    961000   1.0155899      0.0023323615  -0.0016037391   20.095313      18.587162      1.508151      -1.8675969      16917.221    
    962000   0.96586126     0.0023323615  -0.002270519    19.857165      18.422861      1.434304      -1.9964572      16929.593    
    963000   0.94318349     0.0023323615  -0.00026172639  20.118784      18.718157      1.4006275     -1.7427927      16883.805    
    964000   0.83015619     0.0023323615  -0.0012974284   20.068418      18.835636      1.2327819     -1.7105445      16802.113    
    965000   0.87249553     0.0023323615  -0.0020141933   20.208988      18.913332      1.2956559     -1.6789754      16750.076    
    966000   1.0725633      0.0023323615  -0.00069299354  20.204006      18.61125       1.5927565     -1.8357231      16751.369    
    967000   1.0714543      0.0023323615   0.00075853701  20.311089      18.71998       1.5911097     -1.7533014      16876.035    
    968000   0.92407484     0.0023323615  -0.0022267398   20.035953      18.663701      1.3722511     -1.7515873      16927.908    
    969000   1.0581205      0.0023323615   0.00099481011  20.620323      19.049014      1.5713089     -1.4953633      17333.931    
    970000   0.96604399     0.0023323615  -0.0024944501   20.287055      18.85248       1.4345753     -1.7338002      17777.267    
    971000   1.050261       0.0023323615  -0.0016464187   19.989061      18.429423      1.5596376     -2.0561479      17506.746    
    972000   0.98925295     0.0023323615   0.00064076296  19.791278      18.322237      1.4690406     -2.1107365      16859.638    
    973000   1.1060835      0.0023323615  -0.0023545751   19.986357      18.343823      1.642534      -2.116802       16974.058    
    974000   0.9509295      0.0023323615   0.0017131605   19.915996      18.503866      1.4121303     -2.0193739      16763.945    
    975000   1.1504578      0.0023323615   0.0027921736   20.374496      18.666066      1.7084298     -1.7858688      16817.346    
    976000   0.92400854     0.0023323615  -0.0026267501   19.881483      18.509331      1.3721527     -1.8989513      16966.599    
    977000   1.0667955      0.0023323615   0.0025383581   20.148041      18.56385       1.5841913     -2.0417947      17087.832    
    978000   1.0977653      0.0023323615  -0.0053641212   20.429007      18.798826      1.6301815     -1.8389892      17110.478    
    979000   1.087398       0.0023323615  -0.002903123    20.625148      19.010361      1.6147861     -1.5398336      17065.096    
    980000   0.90685846     0.0023323615   0.0034023566   19.911705      18.565021      1.3466848     -1.9147939      16811.041    
    981000   0.88660129     0.0023323615  -0.0042347558   19.931195      18.614592      1.3166029     -1.8542133      16935.149    
    982000   1.0525536      0.0023323615  -0.00063102284  20.332044      18.769002      1.5630421     -1.7763581      17283.185    
    983000   1.1297281      0.0023323615  -0.0022771576   20.109702      18.432055      1.6776463     -2.1194268      17777.036    
    984000   0.84993679     0.0023323615   0.001946092    19.885274      18.623117      1.2621561     -1.7607319      17581.1      
    985000   1.005081       0.0023323615  -0.00060327993  20.054399      18.561853      1.4925453     -1.8334168      17239.072    
    986000   1.071344       0.0023323615  -0.0026917748   20.25384       18.662894      1.5909459     -1.8299001      17474.041    
    987000   0.9166888      0.0023323615  -0.0017100452   19.894307      18.533024      1.3612829     -1.947738       17635.872    
    988000   1.0694498      0.0023323615  -0.0033162408   20.344903      18.75677       1.588133      -1.817223       18140.988    
    989000   0.92728132     0.0023323615  -0.0042469304   20.261252      18.884239      1.3770128     -1.5170128      18240.255    
    990000   1.0012981      0.0023323615  -0.0016738102   20.367063      18.880135      1.4869276     -1.6808469      18153.539    
    991000   0.90288309     0.0023323615   0.00024224729  20.004111      18.66333       1.3407814     -1.8311802      17959.924    
    992000   0.87744042     0.0023323615   0.0024191144   20.032453      18.729453      1.302999      -1.8079153      17665.487    
    993000   1.0563467      0.0023323615   0.0030157355   20.134385      18.56571       1.5686748     -1.8718539      17754.878    
    994000   0.89574546     0.0023323615  -2.584502e-05   20.093733      18.763551      1.330182      -1.8305292      17657.758    
    995000   0.88657182     0.0023323615   0.0013752073   19.942161      18.625602      1.3165592     -1.9341915      17602.565    
    996000   1.0995513      0.0023323615  -0.0018303965   20.176426      18.543592      1.6328337     -1.9497806      17624.241    
    997000   0.93578467     0.0023323615  -0.00057619745  20.03929       18.64965       1.3896402     -1.9060553      17597.552    
    998000   0.95998088     0.0023323615   0.0034864594   20.046501      18.62093       1.4255716     -1.9360861      17623.572    
    999000   0.87073534     0.0023323615  -0.00065570651  20.031859      18.738817      1.293042      -1.688363       17559.631    
   1000000   0.99677846     0.0023323615  -0.00044464862  20.462562      18.982346      1.480216      -1.6686506      17742.699    
Loop time of 57.8633 on 1 procs for 1000000 steps with 100 atoms

Performance: 7465867.241 tau/day, 17282.100 timesteps/s
99.1% CPU use with 1 MPI tasks x 1 OpenMP threads

MPI task timing breakdown:
Section |  min time  |  avg time  |  max time  |%varavg| %total
---------------------------------------------------------------
Pair    | 47.792     | 47.792     | 47.792     |   0.0 | 82.59
Bond    | 1.3272     | 1.3272     | 1.3272     |   0.0 |  2.29
Neigh   | 4.4328     | 4.4328     | 4.4328     |   0.0 |  7.66
Comm    | 1.5186     | 1.5186     | 1.5186     |   0.0 |  2.62
Output  | 0.32293    | 0.32293    | 0.32293    |   0.0 |  0.56
Modify  | 2.0815     | 2.0815     | 2.0815     |   0.0 |  3.60
Other   |            | 0.3887     |            |       |  0.67

Nlocal:            100 ave         100 max         100 min
Histogram: 1 0 0 0 0 0 0 0 0 0
Nghost:            350 ave         350 max         350 min
Histogram: 1 0 0 0 0 0 0 0 0 0
Neighs:           4851 ave        4851 max        4851 min
Histogram: 1 0 0 0 0 0 0 0 0 0

Total # of neighbors = 4851
Ave neighs/atom = 48.51
Ave special neighs/atom = 1.98
Neighbor list builds = 97778
Dangerous builds = 79210

write_data      ${outputfile_assembled} nofix nocoeff
write_data      7_assembled.data nofix nocoeff
System init for write_data ...
Generated 0 of 6 mixed pair_coeff terms from geometric mixing rule

Total wall time: 0:00:59
