LAMMPS (23 Jun 2022 - Update 1)
OMP_NUM_THREADS environment is not set. Defaulting to 1 thread. (src/comm.cpp:98)
  using 1 OpenMP thread(s) per MPI task


variable        runtime equal 1000000
variable		subsample_rate equal 1000

variable		outputfile_created string '3_created.data'
variable		outputfile_relaxed string '5_relaxed.data'
variable		outputfile_selfasb string '6_a_self_assemble.lammpstrj'
variable		outputfile_trajlin string '6_b_trajlin.data'
variable		outputfile_assembled string '7_assembled.data'

units           lj
atom_style      full
dimension       3
boundary        p p p
timestep        0.005

read_data       ${outputfile_created}
read_data       3_created.data
Reading data file ...
  orthogonal box = (0 0 0) to (35 35 35)
  1 by 1 by 1 MPI processor grid
  reading atoms ...
  100 atoms
  reading velocities ...
  100 velocities
  scanning bonds ...
  1 = max bonds/atom
  reading bonds ...
  99 bonds
Finding 1-2 1-3 1-4 neighbors ...
  special bond factors lj:    0        0        0       
  special bond factors coul:  0        0        0       
     2 = max # of 1-2 neighbors
     2 = max # of 1-3 neighbors
     4 = max # of 1-4 neighbors
     6 = max # of special neighbors
  special bonds CPU = 0.000 seconds
  read_data CPU = 0.022 seconds

bond_style      fene
bond_coeff      * 30.0 1.5 1.0 1.0
special_bonds   fene
Finding 1-2 1-3 1-4 neighbors ...
  special bond factors lj:    0        1        1       
  special bond factors coul:  0        1        1       
     2 = max # of 1-2 neighbors
     6 = max # of special neighbors
  special bonds CPU = 0.000 seconds

variable        Temp equal 1.0
variable        velSeed equal 926458

velocity        all create ${Temp} ${velSeed}
velocity        all create 1 ${velSeed}
velocity        all create 1 926458

### Output
thermo_style    custom step temp density press etotal pe ke epair spcpu
thermo          1000

###########################################################################
# Soft relaxation (to remove overlaps of particles)
######################################################################

pair_style      soft 1.0
pair_coeff      * * 0.0
variable        prefactor equal ramp(0,300)
fix             rampSoft all adapt 1 pair soft a * * v_prefactor

minimize        0.0 1.0e-8 1000 100000
WARNING: Using 'neigh_modify every 1 delay 0 check yes' setting during minimization (src/min.cpp:187)
Generated 0 of 6 mixed pair_coeff terms from geometric mixing rule
Neighbor list info ...
  update every 1 steps, delay 0 steps, check yes
  max neighbors/atom: 2000, page size: 100000
  master list distance cutoff = 1.3
  ghost atom cutoff = 1.3
  binsize = 0.65, bins = 54 54 54
  1 neighbor lists, perpetual/occasional/extra = 1 0 0
  (1) pair soft, perpetual
      attributes: half, newton on
      pair build: half/bin/newton
      stencil: half/bin/3d
      bin: standard
WARNING: Communication cutoff 1.3 is shorter than a bond length based estimate of 1.7550000000000001. This may lead to errors. (src/comm.cpp:727)
Per MPI rank memory allocation (min/avg/max) = 8.346 | 8.346 | 8.346 Mbytes
   Step          Temp         Density         Press          TotEng         PotEng         KinEng         E_pair         S/CPU     
         0   1              0.0023323615  -0.0039617958   21.524174      20.039174      1.485          0              0            
       362   1              0.0023323615   0.0023090379   21.485548      20.000548      1.485          0              65450.505    
Loop time of 0.00553305 on 1 procs for 362 steps with 100 atoms

94.7% CPU use with 1 MPI tasks x 1 OpenMP threads

Minimization stats:
  Stopping criterion = force tolerance
  Energy initial, next-to-last, final = 
      20.0391741078675   20.0005480767337   20.0005480767337
  Force two-norm initial, final = 11.878422 7.9509778e-09
  Force max component initial, final = 6.6117807 1.3572772e-09
  Final line search alpha, max atom move = 1 1.3572772e-09
  Iterations, force evaluations = 362 738

MPI task timing breakdown:
Section |  min time  |  avg time  |  max time  |%varavg| %total
---------------------------------------------------------------
Pair    | 0.00022941 | 0.00022941 | 0.00022941 |   0.0 |  4.15
Bond    | 0.0023397  | 0.0023397  | 0.0023397  |   0.0 | 42.29
Neigh   | 0.0017687  | 0.0017687  | 0.0017687  |   0.0 | 31.97
Comm    | 0.00019219 | 0.00019219 | 0.00019219 |   0.0 |  3.47
Output  | 0          | 0          | 0          |   0.0 |  0.00
Modify  | 0          | 0          | 0          |   0.0 |  0.00
Other   |            | 0.001003   |            |       | 18.13

Nlocal:            100 ave         100 max         100 min
Histogram: 1 0 0 0 0 0 0 0 0 0
Nghost:             20 ave          20 max          20 min
Histogram: 1 0 0 0 0 0 0 0 0 0
Neighs:              0 ave           0 max           0 min
Histogram: 1 0 0 0 0 0 0 0 0 0

Total # of neighbors = 0
Ave neighs/atom = 0
Ave special neighs/atom = 1.98
Neighbor list builds = 17
Dangerous builds = 0

fix             nvtSoft all nvt temp ${Temp} ${Temp} 0.5
fix             nvtSoft all nvt temp 1 ${Temp} 0.5
fix             nvtSoft all nvt temp 1 1 0.5
run             100000
Generated 0 of 6 mixed pair_coeff terms from geometric mixing rule
WARNING: Communication cutoff 1.3 is shorter than a bond length based estimate of 1.7550000000000001. This may lead to errors. (src/comm.cpp:727)
Per MPI rank memory allocation (min/avg/max) = 7.221 | 7.221 | 7.221 Mbytes
   Step          Temp         Density         Press          TotEng         PotEng         KinEng         E_pair         S/CPU     
       362   1              0.0023323615   0.0023090379   21.485548      20.000548      1.485          0              0            
      1000   0.90989032     0.0023323615  -0.0021940042   21.776974      20.425787      1.3511871      0.00036425437  76283.798    
      2000   0.86546688     0.0023323615   0.0034714157   21.677128      20.39191       1.2852183      0.0025814786   76734.97     
      3000   0.98199538     0.0023323615   0.0028144228   21.866132      20.407869      1.4582631      0.0011756043   73360.359    
      4000   1.004495       0.0023323615  -0.0014058211   21.945624      20.453949      1.4916751      0.011986179    73163.551    
      5000   1.1222705      0.0023323615   0.0044495116   21.986385      20.319813      1.6665718      0.0050317639   73658.987    
      6000   1.0538243      0.0023323615   0.0023957538   21.985713      20.420784      1.564929       0.012100514    74319.267    
      7000   1.0210598      0.0023323615  -0.00038820026  21.904665      20.388391      1.5162738      0              76054.32     
      8000   0.94819751     0.0023323615   0.0024943091   21.747889      20.339816      1.4080733      0              74670.096    
      9000   0.92364502     0.0023323615   0.0020053029   21.724166      20.352554      1.3716129      1.7780894e-05  75098.698    
     10000   0.86685188     0.0023323615   0.00078277366  21.644879      20.357604      1.287275       0.0098636418   75307.386    
     11000   1.0057103      0.0023323615   0.00010113276  21.8558        20.362321      1.4934798      0.020705341    75060.469    
     12000   0.97901664     0.0023323615  -0.0026996968   21.871206      20.417366      1.4538397      0.0052928539   75086.665    
     13000   0.97718436     0.0023323615  -6.1641422e-06  21.963706      20.512587      1.4511188      0.025022446    74805.97     
     14000   1.0530014      0.0023323615  -0.0009993112   21.947994      20.384287      1.5637071      0.0020860456   73752.111    
     15000   0.99094527     0.0023323615   0.0011068478   21.895146      20.423592      1.4715537      0.0015091113   74574.135    
     16000   0.91285091     0.0023323615  -0.00025424173  21.87524       20.519657      1.3555836      0.0047853639   74497.274    
     17000   0.82806978     0.0023323615  -0.00054698156  21.701984      20.472301      1.2296836      0              74336.924    
     18000   1.043278       0.0023323615  -6.6143919e-05  22.003299      20.454031      1.5492679      0.0034319132   75772.914    
     19000   1.0879249      0.0023323615  -0.0017804642   21.998985      20.383416      1.6155685      0.015376175    73153.789    
     20000   1.1144506      0.0023323615   0.0025198298   22.190904      20.535944      1.6549592      0              75087.967    
     21000   1.0427751      0.0023323615   0.0011345349   22.099492      20.550971      1.548521       0.00040047813  75275.522    
     22000   1.0586695      0.0023323615   0.0017882747   22.05673       20.484606      1.5721242      0              74920.964    
     23000   1.0058426      0.0023323615  -0.0055245362   21.954628      20.460951      1.4936763      0.0027619031   74236.41     
     24000   0.98273442     0.0023323615   0.0015147357   21.862067      20.402707      1.4593606      0              74629.734    
     25000   0.95835343     0.0023323615   0.0017808774   21.937761      20.514606      1.4231548      0.00020839942  74627.217    
     26000   0.93993778     0.0023323615  -0.0021777292   21.884849      20.489042      1.3958076      0.0088889834   74811.858    
     27000   0.9308188      0.0023323615  -0.00011239942  21.842252      20.459986      1.3822659      0.021612409    73861.315    
     28000   1.0149581      0.0023323615   0.0041996387   21.906846      20.399633      1.5072129      0.0064059022   74499.272    
     29000   0.92841138     0.0023323615  -2.5398808e-05  21.987185      20.608494      1.3786909      0.0046112484   74736.796    
     30000   1.021043       0.0023323615   0.001589158    22.097958      20.581709      1.5162489      0.016799508    72345.614    
     31000   1.0465985      0.0023323615  -0.0021744286   22.037917      20.483718      1.5541987      0.0057879149   74782.156    
     32000   0.98907108     0.0023323615  -0.0015558606   22.044089      20.575318      1.4687705      0.009448173    74303.275    
     33000   1.0918536      0.0023323615  -0.0025643847   22.039275      20.417873      1.6214025      0              73707.942    
     34000   0.99801543     0.0023323615   0.0016279766   21.932339      20.450286      1.4820529      0.017384617    76059.422    
     35000   1.0352271      0.0023323615  -0.0052971711   22.076004      20.538692      1.5373122      0.00010473809  74380.964    
     36000   1.1141579      0.0023323615  -0.00093279925  22.222491      20.567966      1.6545245      0.00033678641  75405.978    
     37000   1.0369415      0.0023323615   0.00013065175  22.217841      20.677983      1.5398581      0.013788831    74861.293    
     38000   1.0515596      0.0023323615   0.0021717558   22.070766      20.5092        1.561566       0.0067894678   75205.584    
     39000   1.0238495      0.0023323615   0.00026414509  22.040141      20.519725      1.5204165      0.00044464649  74339.029    
     40000   1.0749111      0.0023323615  -0.0026849368   22.039327      20.443084      1.596243       0.012651334    72950.459    
     41000   0.99070886     0.0023323615  -0.0030385564   22.03241       20.561207      1.4712027      0.00092855646  76018.469    
     42000   0.95315224     0.0023323615   0.0019788197   21.965263      20.549832      1.4154311      0.020233689    74436.99     
     43000   1.0644183      0.0023323615  -0.0011168725   22.287172      20.706511      1.5806611      0.039694129    74432.275    
     44000   1.0253747      0.0023323615  -0.006676522    22.066233      20.543552      1.5226814      0              73502.708    
     45000   0.94179556     0.0023323615  -0.0047206018   21.970644      20.572077      1.3985664      0.019869988    73356.479    
     46000   1.0083495      0.0023323615  -0.0017646918   21.972114      20.474715      1.497399       0.00026040605  74266.518    
     47000   0.98767959     0.0023323615  -0.00080218158  22.091674      20.62497       1.4667042      0.024266258    73859.837    
     48000   1.1473449      0.0023323615  -0.0025885687   22.080512      20.376705      1.7038072      0.00065962995  74284.094    
     49000   1.0679312      0.0023323615   0.0017688272   21.970482      20.384604      1.5858779      0.014142422    75470.291    
     50000   0.9581935      0.0023323615   0.0014398836   21.955202      20.532284      1.4229173      0.0055011948   75056.683    
     51000   1.0215759      0.0023323615  -0.00093292688  21.934681      20.41764       1.5170402      0              74735.79     
     52000   0.98079591     0.0023323615   0.0040701936   21.977374      20.520892      1.4564819      0.0020862422   75804.735    
     53000   1.0090927      0.0023323615   0.0013324753   22.095438      20.596935      1.4985027      0              74863.092    
     54000   0.97519627     0.0023323615   0.0013260734   22.070151      20.621984      1.4481665      0.026885444    75167.98     
     55000   1.1805087      0.0023323615  -0.001586238    22.424088      20.671033      1.7530554      0.024690954    75238.753    
     56000   0.98387121     0.0023323615   0.0037155145   22.104425      20.643376      1.4610487      0.01435493     75022.441    
     57000   1.0723812      0.0023323615  -0.0037916262   22.122726      20.53024       1.592486       0.013635549    75289.832    
     58000   1.0152349      0.0023323615   0.00021908047  22.082827      20.575203      1.5076238      0.00077375639  74957.759    
     59000   1.1424502      0.0023323615  -0.0052108657   22.30072       20.604182      1.6965385      0.013308184    75913.244    
     60000   1.0359703      0.0023323615  -0.00097887545  22.188218      20.649802      1.538416       0.00011346294  74267.456    
     61000   1.1646839      0.0023323615  -0.002085017    22.239945      20.51039       1.7295556      0.012918477    76601.991    
     62000   1.101836       0.0023323615   0.0010338878   22.171386      20.53516       1.6362265      0.001396566    75183.838    
     63000   0.96616435     0.0023323615   0.00097550571  21.903821      20.469067      1.4347541      0.013027663    76454.131    
     64000   1.0068907      0.0023323615  -0.0020278726   22.061652      20.566419      1.4952327      0.013750276    74982.091    
     65000   0.98723233     0.0023323615   0.0022441476   22.031073      20.565033      1.46604        0.0066686189   75392.533    
     66000   1.0273881      0.0023323615  -0.0003515278   22.183579      20.657908      1.5256713      0              73959.393    
     67000   0.96528212     0.0023323615  -0.00014822656  21.9396        20.506156      1.4334439      0.010365557    75464.072    
     68000   1.069702       0.0023323615   9.4754668e-05  22.081119      20.492611      1.5885075      0.00049153926  72982.728    
     69000   1.1229502      0.0023323615   0.0011504079   22.200329      20.532748      1.6675811      0.0068454249   75601.03     
     70000   1.0062775      0.0023323615  -0.00085311964  22.094021      20.599699      1.4943221      0.013222355    74314.672    
     71000   1.0906935      0.0023323615   0.00015260357  22.145362      20.525682      1.6196798      0.018338513    75088.08     
     72000   1.010401       0.0023323615  -6.0487182e-06  22.154105      20.653659      1.5004455      0.0013793953   73787.004    
     73000   1.1177599      0.0023323615  -0.0034084797   22.254435      20.594562      1.6598735      0.00011231735  76444.937    
     74000   0.9768019      0.0023323615   0.00016143893  22.07312       20.622569      1.4505508      0.0084515956   74534.432    
     75000   1.1360996      0.0023323615   0.002159116    22.161595      20.474487      1.6871079      0.0089909162   75310.454    
     76000   0.97379329     0.0023323615  -0.00068458621  21.988928      20.542845      1.446083       0              74463.978    
     77000   0.94876793     0.0023323615  -0.0016073976   21.923496      20.514575      1.4089204      0.017745108    74298.08     
     78000   0.83947996     0.0023323615  -0.00062768559  21.726727      20.480099      1.2466277      0.0054510099   75216.926    
     79000   1.0090614      0.0023323615  -0.00080262643  22.068192      20.569736      1.4984562      0.00023011166  75715.089    
     80000   1.1217643      0.0023323615  -0.0038177864   22.367902      20.702082      1.66582        0.032902439    74802.887    
     81000   1.0240158      0.0023323615   0.00023547123  22.031597      20.510933      1.5206635      0.0068767308   74401.147    
     82000   1.003236       0.0023323615  -0.0022802982   21.894199      20.404393      1.4898055      0.019136282    73416.749    
     83000   1.0554159      0.0023323615   0.004011718    22.104562      20.537269      1.5672927      0.0080869707   73285.651    
     84000   0.83527346     0.0023323615  -0.0034122221   21.874648      20.634267      1.2403811      0.0030083664   74434.658    
     85000   1.036002       0.0023323615   0.0013573923   21.962923      20.42446       1.5384629      0.015709144    74957.99     
     86000   0.9432002      0.0023323615  -0.0032183248   21.913588      20.512936      1.4006523      0.013730309    75021.709    
     87000   0.95566008     0.0023323615  -0.00049614223  21.91653       20.497375      1.4191552      0.0035862035   74075.095    
     88000   0.93373351     0.0023323615  -0.00097093893  21.870485      20.483891      1.3865943      0.0018212145   72951.31     
     89000   0.9684944      0.0023323615  -0.00047342045  21.973429      20.535215      1.4382142      0.00087524744  74153.682    
     90000   0.98293324     0.0023323615  -0.0032204602   22.050919      20.591263      1.4596559      0.015353933    75402.675    
     91000   1.0832827      0.0023323615   0.0048517083   22.11977       20.511095      1.6086749      0.0052867789   76287.304    
     92000   0.85899662     0.0023323615  -0.0013049519   21.765697      20.490087      1.27561        0.0024124001   75145.741    
     93000   0.96176266     0.0023323615  -4.4223672e-05  21.874222      20.446004      1.4282176      0.0045653365   75842.583    
     94000   0.96019503     0.0023323615   0.00024459347  21.944954      20.519064      1.4258896      3.8053462e-05  75418.512    
     95000   0.94702149     0.0023323615  -0.0033658915   21.86315       20.456823      1.4063269      0              76159.589    
     96000   0.91119348     0.0023323615  -0.0013197298   21.825018      20.471896      1.3531223      0.00043282989  74570.682    
     97000   1.0016687      0.0023323615  -0.0019514304   22.013024      20.525546      1.487478       0.0048369955   74191.329    
     98000   1.02143        0.0023323615  -0.0057874974   22.177965      20.661142      1.5168235      0              73024.858    
     99000   1.032786       0.0023323615   0.0018228259   21.975336      20.441649      1.5336871      7.1595851e-05  76316.234    
    100000   1.0594928      0.0023323615   0.0036169719   22.011024      20.437677      1.5733468      0.00032948157  74114.48     
    100362   1.1904942      0.0023323615  -0.00089755607  22.316856      20.548972      1.7678839      0.00063845255  73993.192    
Loop time of 1.33824 on 1 procs for 100000 steps with 100 atoms

Performance: 32281094.059 tau/day, 74724.755 timesteps/s
99.3% CPU use with 1 MPI tasks x 1 OpenMP threads

MPI task timing breakdown:
Section |  min time  |  avg time  |  max time  |%varavg| %total
---------------------------------------------------------------
Pair    | 0.058857   | 0.058857   | 0.058857   |   0.0 |  4.40
Bond    | 0.14036    | 0.14036    | 0.14036    |   0.0 | 10.49
Neigh   | 0.80413    | 0.80413    | 0.80413    |   0.0 | 60.09
Comm    | 0.056512   | 0.056512   | 0.056512   |   0.0 |  4.22
Output  | 0.0010559  | 0.0010559  | 0.0010559  |   0.0 |  0.08
Modify  | 0.24419    | 0.24419    | 0.24419    |   0.0 | 18.25
Other   |            | 0.03313    |            |       |  2.48

Nlocal:            100 ave         100 max         100 min
Histogram: 1 0 0 0 0 0 0 0 0 0
Nghost:             60 ave          60 max          60 min
Histogram: 1 0 0 0 0 0 0 0 0 0
Neighs:             36 ave          36 max          36 min
Histogram: 1 0 0 0 0 0 0 0 0 0

Total # of neighbors = 36
Ave neighs/atom = 0.36
Ave special neighs/atom = 1.98
Neighbor list builds = 9821
Dangerous builds = 8265
unfix           nvtSoft
unfix           rampSoft
reset_timestep  0

write_data      ${outputfile_relaxed}
write_data      5_relaxed.data
System init for write_data ...
Generated 0 of 6 mixed pair_coeff terms from geometric mixing rule
WARNING: Communication cutoff 1.3 is shorter than a bond length based estimate of 1.7550000000000001. This may lead to errors. (src/comm.cpp:727)
WARNING: Not all mixed pair coeffs generated from mixing. Use write_data with 'pair ij' option to store all pair coeffs. (src/write_data.cpp:309)

###########################################################################
# Full LJ with Coulomb
######################################################################

# Cutoffs and parameters:
# - Values: Marcel Verkade's Bachelor Thesis
# - Mapping to atom groups: Patrick Onck's paper
# - 1: aliphatic, 2: aromatic, 3: anion, 4: cation
# pair_style	lj/cut/coul/cut <lj_cut_global> <coul_cut_global>
# pair_coeff	<type_1>  <type_2>  <eps>  <sigma>  <r_cut_lj>  <r_cut_coul>

# Problem: Onck's model is much more complex, and Marcel has no sigma reported
# Using sigma=1 randomly

variable		glob_ljeps equal 1.0
variable		glob_ljsig 	equal 1.0
variable		glob_coulcut equal 10.0
variable		att_ljcut equal 2.50
variable		rep_ljcut equal 1.12

pair_style		lj/cut/coul/cut 						${att_ljcut} 	${glob_coulcut}
pair_style		lj/cut/coul/cut 						2.5 	${glob_coulcut}
pair_style		lj/cut/coul/cut 						2.5 	10
pair_coeff		1 1 	${glob_ljeps} 	${glob_ljsig}	${att_ljcut} 	${glob_coulcut}
pair_coeff		1 1 	1 	${glob_ljsig}	${att_ljcut} 	${glob_coulcut}
pair_coeff		1 1 	1 	1	${att_ljcut} 	${glob_coulcut}
pair_coeff		1 1 	1 	1	2.5 	${glob_coulcut}
pair_coeff		1 1 	1 	1	2.5 	10
pair_coeff		1 2 	${glob_ljeps} 	${glob_ljsig}	${att_ljcut} 	${glob_coulcut}
pair_coeff		1 2 	1 	${glob_ljsig}	${att_ljcut} 	${glob_coulcut}
pair_coeff		1 2 	1 	1	${att_ljcut} 	${glob_coulcut}
pair_coeff		1 2 	1 	1	2.5 	${glob_coulcut}
pair_coeff		1 2 	1 	1	2.5 	10
pair_coeff		1 3 	${glob_ljeps} 	${glob_ljsig}	${rep_ljcut} 	${glob_coulcut}
pair_coeff		1 3 	1 	${glob_ljsig}	${rep_ljcut} 	${glob_coulcut}
pair_coeff		1 3 	1 	1	${rep_ljcut} 	${glob_coulcut}
pair_coeff		1 3 	1 	1	1.12 	${glob_coulcut}
pair_coeff		1 3 	1 	1	1.12 	10
pair_coeff		1 4 	${glob_ljeps} 	${glob_ljsig}	${rep_ljcut} 	${glob_coulcut}
pair_coeff		1 4 	1 	${glob_ljsig}	${rep_ljcut} 	${glob_coulcut}
pair_coeff		1 4 	1 	1	${rep_ljcut} 	${glob_coulcut}
pair_coeff		1 4 	1 	1	1.12 	${glob_coulcut}
pair_coeff		1 4 	1 	1	1.12 	10
pair_coeff		2 2 	${glob_ljeps} 	${glob_ljsig}	${att_ljcut} 	${glob_coulcut}
pair_coeff		2 2 	1 	${glob_ljsig}	${att_ljcut} 	${glob_coulcut}
pair_coeff		2 2 	1 	1	${att_ljcut} 	${glob_coulcut}
pair_coeff		2 2 	1 	1	2.5 	${glob_coulcut}
pair_coeff		2 2 	1 	1	2.5 	10
pair_coeff		2 3 	${glob_ljeps} 	${glob_ljsig}	${rep_ljcut} 	${glob_coulcut}
pair_coeff		2 3 	1 	${glob_ljsig}	${rep_ljcut} 	${glob_coulcut}
pair_coeff		2 3 	1 	1	${rep_ljcut} 	${glob_coulcut}
pair_coeff		2 3 	1 	1	1.12 	${glob_coulcut}
pair_coeff		2 3 	1 	1	1.12 	10
pair_coeff		2 4 	${glob_ljeps} 	${glob_ljsig}	${att_ljcut} 	${glob_coulcut}
pair_coeff		2 4 	1 	${glob_ljsig}	${att_ljcut} 	${glob_coulcut}
pair_coeff		2 4 	1 	1	${att_ljcut} 	${glob_coulcut}
pair_coeff		2 4 	1 	1	2.5 	${glob_coulcut}
pair_coeff		2 4 	1 	1	2.5 	10
pair_coeff		3 3 	${glob_ljeps} 	${glob_ljsig}	${rep_ljcut} 	${glob_coulcut}
pair_coeff		3 3 	1 	${glob_ljsig}	${rep_ljcut} 	${glob_coulcut}
pair_coeff		3 3 	1 	1	${rep_ljcut} 	${glob_coulcut}
pair_coeff		3 3 	1 	1	1.12 	${glob_coulcut}
pair_coeff		3 3 	1 	1	1.12 	10
pair_coeff		3 4 	${glob_ljeps} 	${glob_ljsig}	${att_ljcut} 	${glob_coulcut}
pair_coeff		3 4 	1 	${glob_ljsig}	${att_ljcut} 	${glob_coulcut}
pair_coeff		3 4 	1 	1	${att_ljcut} 	${glob_coulcut}
pair_coeff		3 4 	1 	1	2.5 	${glob_coulcut}
pair_coeff		3 4 	1 	1	2.5 	10
pair_coeff		4 4 	${glob_ljeps} 	${glob_ljsig}	${rep_ljcut} 	${glob_coulcut}
pair_coeff		4 4 	1 	${glob_ljsig}	${rep_ljcut} 	${glob_coulcut}
pair_coeff		4 4 	1 	1	${rep_ljcut} 	${glob_coulcut}
pair_coeff		4 4 	1 	1	1.12 	${glob_coulcut}
pair_coeff		4 4 	1 	1	1.12 	10


fix             noDriftRot 	all momentum 10 linear 1 1 1 angular
fix             nvt1 		all nvt temp ${Temp} ${Temp} 0.5
fix             nvt1 		all nvt temp 1 ${Temp} 0.5
fix             nvt1 		all nvt temp 1 1 0.5

# dump          assemble 	all custom 1000 				${outputfile_selfasb} id type xu yu zu vx vy vz
dump            lindump 	all custom ${subsample_rate} 	${outputfile_trajlin} id type xu yu zu vx vy vz
dump            lindump 	all custom 1000 	${outputfile_trajlin} id type xu yu zu vx vy vz
dump            lindump 	all custom 1000 	6_b_trajlin.data id type xu yu zu vx vy vz

run             ${runtime}
run             1000000
Generated 0 of 6 mixed pair_coeff terms from geometric mixing rule
Neighbor list info ...
  update every 1 steps, delay 10 steps, check yes
  max neighbors/atom: 2000, page size: 100000
  master list distance cutoff = 10.3
  ghost atom cutoff = 10.3
  binsize = 5.15, bins = 7 7 7
  1 neighbor lists, perpetual/occasional/extra = 1 0 0
  (1) pair lj/cut/coul/cut, perpetual
      attributes: half, newton on
      pair build: half/bin/newton
      stencil: half/bin/3d
      bin: standard
Per MPI rank memory allocation (min/avg/max) = 7.712 | 7.712 | 7.712 Mbytes
   Step          Temp         Density         Press          TotEng         PotEng         KinEng         E_pair         S/CPU     
         0   1.1904942      0.0023323615  -0.0013890612   21.895478      20.127594      1.7678839     -0.42074024     0            
      1000   0.91549166     0.0023323615  -0.0021266863   21.255067      19.895562      1.3595051     -0.60429634     33086.642    
      2000   0.95516927     0.0023323615   0.00089883735  20.970704      19.552277      1.4184264     -0.82432099     31353.669    
      3000   0.99538473     0.0023323615  -0.00090871444  20.975389      19.497243      1.4781463     -0.93165689     27597.646    
      4000   0.90867029     0.0023323615   0.0021880317   20.81256       19.463184      1.3493754     -0.99675086     21591.189    
      5000   0.96946022     0.0023323615  -0.0011458396   21.171652      19.732004      1.4396484     -0.81752538     19244.939    
      6000   0.96757279     0.0023323615   0.0012866918   20.854955      19.41811       1.4368456     -0.93335584     19877.404    
      7000   0.87205191     0.0023323615  -0.0025741266   20.825071      19.530074      1.2949971     -0.9404523      20574.603    
      8000   0.89905487     0.0023323615  -0.0021304598   20.963723      19.628626      1.3350965     -0.87588756     20364.122    
      9000   1.0363965      0.0023323615   0.0021734624   21.384068      19.84502       1.5390487     -0.75786362     20532.25     
     10000   1.0379186      0.0023323615  -0.0024861117   21.024924      19.483615      1.5413092     -0.96827914     19348.56     
     11000   0.88138414     0.0023323615   0.0014486977   20.786183      19.477328      1.3088554     -1.0254142      18616.696    
     12000   1.033785       0.0023323615   0.00013626477  21.157911      19.62274       1.5351707     -0.93072205     18693.85     
     13000   0.96106472     0.0023323615  -0.00085811852  21.125976      19.698795      1.4271811     -0.80657424     18823.43     
     14000   0.87709584     0.0023323615   0.0033084305   20.531993      19.229506      1.3024873     -1.1172707      18527.519    
     15000   1.0007269      0.0023323615   0.0055580979   20.730369      19.24429       1.4860795     -1.2570272      18442.783    
     16000   1.0000402      0.0023323615   0.0029221139   20.824227      19.339168      1.4850597     -1.0944602      18485.15     
     17000   0.94907753     0.0023323615   0.0014712872   20.776282      19.366901      1.4093801     -1.2046114      18422.723    
     18000   0.87447577     0.0023323615  -6.1092776e-05  20.742599      19.444003      1.2985965     -1.0127126      18444.797    
     19000   0.88849241     0.0023323615   0.00099115558  20.939719      19.620308      1.3194112     -0.9199012      18606.254    
     20000   1.1920512      0.0023323615  -0.00060988356  21.249998      19.479801      1.7701961     -0.93986369     18706.922    
     21000   1.0172008      0.0023323615  -0.0043791244   21.069936      19.559393      1.5105433     -0.97185459     19235.585    
     22000   1.0574987      0.0023323615  -0.00012934059  21.093065      19.522679      1.5703856     -0.84968955     19771.875    
     23000   0.95557535     0.0023323615  -0.0025542901   20.882289      19.463259      1.4190294     -1.1204038      18941.471    
     24000   0.96069174     0.0023323615  -0.0030642651   20.836386      19.409759      1.4266272     -1.0892294      18726.018    
     25000   1.0983556      0.0023323615  -0.00061290369  20.91989       19.288832      1.631058      -1.2470157      18318.077    
     26000   1.0616248      0.0023323615  -0.00024177102  20.83178       19.255267      1.5765128     -1.2809074      18182.531    
     27000   0.88084802     0.0023323615  -0.0018596829   20.837353      19.529294      1.3080593     -1.0255531      18240.737    
     28000   1.0488942      0.0023323615   0.00081986408  21.375914      19.818306      1.5576078     -0.72661211     18652.847    
     29000   1.2115732      0.0023323615  -0.00015466043  21.385744      19.586557      1.7991862     -0.89913941     18786.502    
     30000   1.0363001      0.0023323615  -0.00034562875  20.821173      19.282268      1.5389056     -1.132018       18452.988    
     31000   0.93165584     0.0023323615   0.0031875328   20.95383       19.570321      1.3835089     -1.0626109      18383.516    
     32000   0.93664456     0.0023323615  -0.00094814571  20.631794      19.240876      1.3909172     -1.2183903      18328.482    
     33000   1.0081132      0.0023323615  -0.0022348897   20.788521      19.291473      1.4970482     -1.2060029      18270.999    
     34000   0.95211181     0.0023323615  -0.0054681237   20.96227       19.548384      1.413886      -1.0096781      18396.5      
     35000   0.9219654      0.0023323615  -0.0028419423   20.67407       19.304952      1.3691186     -1.21452        18551.748    
     36000   1.0171059      0.0023323615  -0.00094431614  20.647801      19.137399      1.5104022     -1.3828105      18246.4      
     37000   0.98592026     0.0023323615   0.0013876556   20.677776      19.213684      1.4640916     -1.2867448      18262.15     
     38000   0.92591585     0.0023323615   0.00089049358  20.58857       19.213585      1.374985      -1.3216435      18268.718    
     39000   0.9945628      0.0023323615  -0.002154699    20.809803      19.332877      1.4769258     -1.2817917      18206.869    
     40000   0.8964723      0.0023323615   0.0016040489   20.477867      19.146606      1.3312614     -1.4044133      18143.726    
     41000   0.9165952      0.0023323615  -0.0011188165   20.50387       19.142726      1.3611439     -1.3169231      18237.455    
     42000   1.0205932      0.0023323615   0.0029928179   20.738457      19.222876      1.5155809     -1.3348269      18268.778    
     43000   0.97650237     0.0023323615  -0.0035529626   20.761108      19.311002      1.450106      -1.1735407      18397.683    
     44000   1.1167493      0.0023323615   0.0030093295   20.94652       19.288147      1.6583728     -1.2303615      18333.72     
     45000   1.0119547      0.0023323615   0.00065963145  20.899627      19.396875      1.5027528     -1.0765306      18488.536    
     46000   1.0989798      0.0023323615   0.0045885237   21.172041      19.540055      1.6319851     -0.9701773      18604.766    
     47000   0.92616074     0.0023323615  -0.002305698    21.009468      19.634119      1.3753487     -0.95950587     18659.044    
     48000   0.90370107     0.0023323615  -0.0022087126   21.049759      19.707763      1.3419961     -1.0285049      18814.102    
     49000   0.8814595      0.0023323615   0.0010975013   21.031362      19.722395      1.3089674     -0.93271147     19047.136    
     50000   1.1463569      0.0023323615   0.0036954734   21.206687      19.504347      1.7023399     -0.9902023      18701.286    
     51000   1.0679214      0.0023323615  -0.002270685    21.146351      19.560487      1.5858632     -1.0048192      18421.288    
     52000   0.94344854     0.0023323615   0.0018566531   20.606074      19.205053      1.4010211     -1.2709593      18325.628    
     53000   0.86633425     0.0023323615   0.0033816414   20.621475      19.334968      1.2865064     -1.0799831      18270.668    
     54000   1.0316273      0.0023323615   0.00021040021  20.808483      19.276517      1.5319665     -1.2017679      18280.275    
     55000   0.92151583     0.0023323615  -0.0011406131   20.72247       19.354019      1.368451      -1.2484579      18254.135    
     56000   0.99475039     0.0023323615   0.0014460362   20.536933      19.059729      1.4772043     -1.4018576      18273.909    
     57000   1.0251214      0.0023323615   0.003000719    21.020927      19.498621      1.5223053     -1.0128611      18355.47     
     58000   0.92110483     0.0023323615   0.00075495166  21.015577      19.647736      1.3678407     -0.93627154     18587.332    
     59000   0.97148775     0.0023323615   0.0027271639   20.869786      19.427127      1.4426593     -1.1449577      18568.784    
     60000   1.082672       0.0023323615   0.00068279073  21.169229      19.561461      1.607768      -0.94892918     19062.155    
     61000   1.07804        0.0023323615  -0.0025982065   21.099402      19.498512      1.6008893     -1.0796223      19612.546    
     62000   1.1003074      0.0023323615   0.0011093569   21.211527      19.57757       1.6339565     -0.86016947     19428.146    
     63000   1.13573        0.0023323615   0.0013604636   21.276125      19.589566      1.686559      -0.86532465     19558.546    
     64000   1.1052229      0.0023323615   0.0011957591   21.348492      19.707236      1.641256      -0.77565812     19792.78     
     65000   0.97801814     0.0023323615  -0.0023157105   20.994033      19.541676      1.4523569     -1.0426463      19585.465    
     66000   0.9527275      0.0023323615   0.0072814609   21.062756      19.647956      1.4148003     -1.0026126      18618.825    
     67000   0.86418474     0.0023323615   0.00016012598  20.612071      19.328756      1.2833143     -1.179679       18399.671    
     68000   1.092643       0.0023323615   0.0022491048   21.089591      19.467016      1.6225748     -0.93185653     18455.663    
     69000   0.88701021     0.0023323615   0.0047552436   20.791777      19.474567      1.3172102     -1.0586189      19382.97     
     70000   1.0055122      0.0023323615   0.0036697176   21.083768      19.590583      1.4931856     -0.93553768     20382.94     
     71000   1.1184806      0.0023323615   0.0006671908   21.372591      19.711647      1.6609437     -0.71515491     21856.467    
     72000   1.030442       0.0023323615   0.0034691663   21.302644      19.772438      1.5302064     -0.71672625     22989.356    
     73000   0.96132258     0.0023323615   0.0030884209   21.080936      19.653372      1.427564      -0.85089976     23156.53     
     74000   1.0548621      0.0023323615   0.0048895433   21.368057      19.801586      1.5664703     -0.7098029      22575.277    
     75000   1.0199769      0.0023323615   0.0012804269   21.100835      19.58617       1.5146657     -0.98398592     20713.634    
     76000   0.9974757      0.0023323615  -0.0012323748   20.992608      19.511356      1.4812514     -0.92183609     18734.323    
     77000   0.94761377     0.0023323615  -0.00097388152  20.874489      19.467283      1.4072065     -1.0964595      18376.192    
     78000   1.0779175      0.0023323615  -0.0025967225   20.714988      19.114281      1.6007075     -1.2390306      18331.346    
     79000   1.0272641      0.0023323615  -0.00076271847  21.369338      19.843851      1.5254872     -0.7078489      18569.281    
     80000   1.0905237      0.0023323615  -0.0021141587   21.140647      19.521219      1.6194277     -0.97049079     18557.087    
     81000   1.0840972      0.0023323615  -0.0036868734   21.259409      19.649524      1.6098844     -0.854395       18781.695    
     82000   0.90652648     0.0023323615  -0.0013188208   20.804135      19.457943      1.3461918     -0.94177648     18784.063    
     83000   0.97245906     0.0023323615   0.0018290196   21.064811      19.62071       1.4441017     -0.88103059     18653.482    
     84000   1.1467005      0.0023323615   0.00047298096  21.038735      19.335885      1.7028502     -1.1545037      18458.776    
     85000   1.1612574      0.0023323615   0.00066853061  21.251938      19.527471      1.7244672     -1.0255169      18397.31     
     86000   0.98659959     0.0023323615   0.00032016409  20.806405      19.341305      1.4651004     -1.0601389      18414.491    
     87000   1.0671787      0.0023323615   0.0044307751   20.781403      19.196642      1.5847603     -1.2844403      18214.122    
     88000   0.9675822      0.0023323615  -0.0041499368   20.984792      19.547933      1.4368596     -1.0310685      18227.563    
     89000   0.99422259     0.0023323615   0.00172437     20.872809      19.396389      1.4764205     -1.0500667      18292.731    
     90000   1.0932703      0.0023323615   0.00084827899  21.134288      19.510781      1.6235065     -1.0388833      18409.325    
     91000   1.1015621      0.0023323615   0.00094811476  21.196741      19.560922      1.6358197     -1.0001641      18510.422    
     92000   0.94183766     0.0023323615   0.00031212178  20.83182       19.433191      1.3986289     -1.0893753      18268.237    
     93000   1.081996       0.0023323615   0.002639513    20.882455      19.275691      1.606764      -1.1697928      18251.247    
     94000   0.97702635     0.0023323615  -0.0031936461   21.025012      19.574128      1.4508841     -0.99911017     18537.123    
     95000   1.0559268      0.0023323615  -0.00083941534  20.794379      19.226328      1.5680514     -1.2441931      18663.174    
     96000   0.93309482     0.0023323615   0.0019218201   20.810221      19.424575      1.3856458     -1.1115251      18541.399    
     97000   0.94804884     0.0023323615  -0.00034320734  20.786382      19.37853       1.4078525     -1.0609348      18413.564    
     98000   0.98999625     0.0023323615   0.00013888796  21.026737      19.556593      1.4701444     -0.99214875     18655.542    
     99000   1.0200772      0.0023323615   0.00053113177  20.790524      19.27571       1.5148147     -1.1919864      18433.737    
    100000   0.82495188     0.0023323615   0.0016891597   20.653872      19.428818      1.2250535     -1.1025443      18654.388    
    101000   1.0502657      0.0023323615   0.0017984723   20.891871      19.332226      1.5596446     -1.1102414      18966.569    
    102000   0.92464525     0.0023323615  -0.00066812016  20.975853      19.602755      1.3730982     -0.97473749     18996.721    
    103000   1.0507085      0.0023323615  -0.00016579808  20.86517       19.304867      1.5603021     -1.2058251      19072.471    
    104000   0.99191153     0.0023323615  -0.0009415387   20.813725      19.340736      1.4729886     -1.210433       18649.094    
    105000   0.86314535     0.0023323615  -0.0014856539   20.913943      19.632173      1.2817708     -0.9383299      18639.506    
    106000   0.96197599     0.0023323615   0.00087068764  20.736048      19.307514      1.4285343     -1.1912786      18626.563    
    107000   0.89775677     0.0023323615   0.0011712144   20.508199      19.175031      1.3331688     -1.3061669      18458.534    
    108000   1.0848407      0.0023323615   0.0020506087   20.960214      19.349226      1.6109885     -1.141506       18371.169    
    109000   0.98543465     0.0023323615   0.00094736194  20.931411      19.46804       1.4633705     -1.0420814      18783.247    
    110000   1.1197503      0.0023323615   0.0024990013   21.148054      19.485224      1.6628292     -1.0720946      18699.215    
    111000   1.069665       0.0023323615   0.00069232478  20.971758      19.383306      1.5884525     -1.0925406      18670.767    
    112000   0.89601062     0.0023323615  -0.0011362054   20.7417        19.411124      1.3305758     -1.1149962      18469.47     
    113000   1.0422939      0.0023323615   0.0021290508   20.886756      19.338949      1.5478064     -1.2068974      18321.191    
    114000   1.0892844      0.0023323615   0.00080771136  20.9381        19.320513      1.6175874     -1.2203091      18524.724    
    115000   0.94538622     0.0023323615  -0.0033691999   21.009744      19.605845      1.4038985     -1.0235813      18451.279    
    116000   1.0378801      0.0023323615   0.00079947713  20.993307      19.452055      1.541252      -1.0828794      18899.254    
    117000   0.94928535     0.0023323615  -7.4866009e-05  20.944462      19.534774      1.4096887     -0.90436154     19610.592    
    118000   0.92869333     0.0023323615  -0.00011456319  20.885085      19.505976      1.3791096     -0.99046527     19565.67     
    119000   1.1070865      0.0023323615   0.00022813609  20.892377      19.248354      1.6440234     -1.1523648      18704.03     
    120000   0.97867795     0.0023323615  -0.0021174098   20.912486      19.459149      1.4533368     -0.92683177     18430.755    
    121000   0.95987431     0.0023323615  -0.001150503    20.908223      19.48281       1.4254134     -1.0588808      18652.833    
    122000   1.0680812      0.0023323615   0.0011499505   21.102437      19.516336      1.5861006     -1.0163143      18687.064    
    123000   1.0438937      0.0023323615   0.0016474292   21.098561      19.548379      1.5501822     -1.0711051      18501.607    
    124000   1.0744628      0.0023323615   0.0016322814   21.120117      19.52454       1.5955772     -1.1498339      18631.949    
    125000   1.014169       0.0023323615   0.0027035421   20.940679      19.434638      1.506041      -1.0814287      18767.869    
    126000   1.1583509      0.0023323615  -0.0038447925   21.199434      19.479283      1.720151      -0.98742097     19018.685    
    127000   1.0110209      0.0023323615  -0.00074783929  21.117334      19.615968      1.5013661     -0.95913476     18725.488    
    128000   1.0069453      0.0023323615  -0.0039000053   20.742703      19.247389      1.4953137     -1.24314        18530.556    
    129000   0.92727123     0.0023323615  -0.0012686135   20.879873      19.502875      1.3769978     -1.0634666      18391.503    
    130000   0.98090517     0.0023323615   0.00073486117  20.849674      19.39303       1.4566442     -1.1083171      18591.553    
    131000   1.0034252      0.0023323615  -0.00070957749  20.822321      19.332234      1.4900864     -1.2614392      18458.346    
    132000   0.9791927      0.0023323615   0.0017214092   20.756244      19.302143      1.4541012     -1.1992489      18358.41     
    133000   1.0163742      0.0023323615   0.00018858896  20.748294      19.238978      1.5093158     -1.1752409      18501.861    
    134000   0.91742432     0.0023323615   0.0022990882   20.724908      19.362533      1.3623751     -1.1607509      18294.36     
    135000   0.85310571     0.0023323615  -0.00017041982  20.662687      19.395825      1.266862      -1.2309684      18243.218    
    136000   0.99482295     0.0023323615  -0.0017726871   20.853538      19.376226      1.4773121     -1.1076921      18287.023    
    137000   0.79780007     0.0023323615  -0.0025082428   20.460825      19.276091      1.1847331     -1.157445       18408.137    
    138000   0.8922463      0.0023323615   0.0019166008   20.737827      19.412841      1.3249858     -1.13335        18225.586    
    139000   0.9347914      0.0023323615  -0.0022693719   21.000485      19.61232       1.3881652     -0.9619246      18659.577    
    140000   1.0393535      0.0023323615  -0.0020419023   20.864009      19.320569      1.54344       -1.2944828      18605.553    
    141000   0.98686387     0.0023323615   0.0020911479   20.713298      19.247805      1.4654928     -1.1417118      18478.494    
    142000   0.90542762     0.0023323615  -0.0020966986   20.685611      19.341051      1.34456       -1.048928       18599.198    
    143000   0.8385875      0.0023323615  -0.00014895159  20.605694      19.360391      1.2453024     -1.2028481      18551.255    
    144000   0.90746178     0.0023323615  -0.0034165523   20.574559      19.226978      1.3475807     -1.1358881      18347.372    
    145000   0.98974673     0.0023323615  -0.0012554962   20.988769      19.518995      1.4697739     -0.9946457      18505.418    
    146000   0.98409338     0.0023323615   0.0015430528   20.944614      19.483236      1.4613787     -1.049025       18572.091    
    147000   0.99290782     0.0023323615  -0.00037973724  20.949044      19.474575      1.4744681     -1.1785187      18586.647    
    148000   1.0606843      0.0023323615   0.00055063797  21.12435       19.549233      1.5751162     -1.0494082      18693.013    
    149000   1.1440919      0.0023323615  -0.00024795639  21.340073      19.641097      1.6989764     -1.0457375      18484.688    
    150000   0.90511277     0.0023323615  -0.0013432618   20.65093       19.306837      1.3440925     -1.1259226      18446.918    
    151000   0.97138796     0.0023323615   0.0015540142   20.576811      19.134299      1.4425111     -1.3676827      18486.951    
    152000   1.0337004      0.0023323615  -0.0019226007   21.032538      19.497493      1.535045      -0.96645882     18647.989    
    153000   1.0458812      0.0023323615  -0.0018699419   20.926035      19.372901      1.5531336     -1.1726016      18603.289    
    154000   1.0039333      0.0023323615   0.0013041868   20.870048      19.379207      1.490841      -1.0417106      18448.998    
    155000   0.97574011     0.0023323615  -0.0005443473   20.611271      19.162297      1.4489741     -1.285029       18453.145    
    156000   1.0493521      0.0023323615   7.2447851e-05  21.037131      19.478843      1.5582879     -1.0889821      18421.496    
    157000   1.008501       0.0023323615   0.002525507    20.770826      19.273202      1.497624      -1.280598       18425.556    
    158000   1.1577112      0.0023323615  -0.0029094899   21.105878      19.386677      1.7192012     -1.2134683      18464.533    
    159000   1.0327226      0.0023323615  -0.001926067    20.680498      19.146905      1.533593      -1.3394205      18472.109    
    160000   1.1534587      0.0023323615  -0.00023489503  20.986051      19.273165      1.7128862     -1.2936066      18470.947    
    161000   1.152933       0.0023323615   0.0028570488   21.13781       19.425705      1.7121055     -1.2587619      18353.86     
    162000   1.0401835      0.0023323615  -0.0016323525   20.854254      19.309582      1.5446724     -1.2061256      18397.154    
    163000   0.85793922     0.0023323615   0.0021100425   20.585142      19.311102      1.2740397     -1.3103921      18329.033    
    164000   1.1228314      0.0023323615  -0.0016179961   21.001491      19.334087      1.6674047     -1.1805449      18285.868    
    165000   1.0906688      0.0023323615   0.0031268001   21.400159      19.780516      1.6196432     -0.93780044     18383.557    
    166000   1.0187434      0.0023323615   0.0028031434   20.860633      19.347799      1.5128339     -1.2570486      18496.865    
    167000   0.96872176     0.0023323615   0.00026433094  20.836952      19.3984        1.4385518     -1.1972909      18471.877    
    168000   1.0606317      0.0023323615   0.0015332737   21.013507      19.438469      1.5750381     -0.96864559     18493.524    
    169000   0.92701266     0.0023323615  -0.0039588632   20.635021      19.258407      1.3766138     -1.208841       18481.737    
    170000   0.96490679     0.0023323615   0.0014055362   20.795483      19.362597      1.4328866     -1.210127       18440.953    
    171000   0.88611071     0.0023323615  -0.0014282161   20.677164      19.36129       1.3158744     -1.0232198      18365.254    
    172000   0.93610234     0.0023323615   0.0015322872   20.559371      19.169259      1.390112      -1.2259826      18488.625    
    173000   0.95380355     0.0023323615   0.0058496752   20.712611      19.296212      1.4163983     -1.1598082      18470.407    
    174000   0.91648585     0.0023323615  -0.00091860024  20.714045      19.353063      1.3609815     -1.2009876      18473.371    
    175000   1.0236645      0.0023323615   0.002588798    20.91255       19.392409      1.5201418     -1.1329932      18474.092    
    176000   0.96750878     0.0023323615   0.0017526681   21.009512      19.572761      1.4367505     -1.0305607      18672.619    
    177000   1.0158415      0.0023323615  -0.00049279759  20.958121      19.449597      1.5085247     -1.0577767      19011.151    
    178000   1.044232       0.0023323615   0.0042849585   21.106133      19.555449      1.5506845     -0.94843121     18859.338    
    179000   1.0086054      0.0023323615   0.0010159533   20.943213      19.445434      1.497779      -1.1228251      18663.739    
    180000   0.97663612     0.0023323615  -0.0012686233   21.012633      19.562328      1.4503046     -1.0115046      18548.828    
    181000   0.89793856     0.0023323615  -0.0018164025   20.898348      19.564909      1.3334388     -0.94294509     18617.318    
    182000   0.96149563     0.0023323615   0.001007975    21.38405       19.956229      1.427821      -0.92944564     18534.362    
    183000   1.0893017      0.0023323615  -0.00095203018  21.119806      19.502193      1.617613      -1.0524843      18542.174    
    184000   0.99059372     0.0023323615  -0.0010480986   21.118118      19.647086      1.4710317     -0.99014206     18745.385    
    185000   1.0367802      0.0023323615  -0.0023540439   21.026021      19.486402      1.5396185     -1.0400319      18576.864    
    186000   0.96967192     0.0023323615   0.00053630729  20.898442      19.458479      1.4399628     -1.1193918      18682.076    
    187000   1.0648848      0.0023323615   0.0024539151   20.612811      19.031457      1.5813539     -1.3984694      18448.592    
    188000   0.95801732     0.0023323615   0.00063043122  20.705063      19.282408      1.4226557     -1.2603971      18353.06     
    189000   1.0072184      0.0023323615   0.0019888134   21.143129      19.64741       1.4957193     -0.89991412     18470.164    
    190000   1.0636824      0.0023323615  -0.0012681696   20.853138      19.27357       1.5795684     -1.2765396      18617.512    
    191000   0.96421034     0.0023323615   0.00055374476  20.791912      19.36006       1.4318523     -1.0803584      18567.585    
    192000   0.88725106     0.0023323615   0.0032704815   20.845083      19.527515      1.3175678     -1.048245       18629.855    
    193000   0.88919571     0.0023323615  -0.00010538978  20.763178      19.442722      1.3204556     -1.0394341      18576.397    
    194000   0.97978846     0.0023323615  -0.0013330622   20.966662      19.511676      1.4549859     -0.95139982     18596.911    
    195000   1.0427355      0.0023323615   0.0041310588   20.942437      19.393975      1.5484623     -1.0276771      18655.535    
    196000   1.1134494      0.0023323615   0.0026415063   20.953083      19.299611      1.6534723     -1.2276094      18752.922    
    197000   1.0181136      0.0023323615   0.00039117878  21.027782      19.515883      1.5118987     -1.059226       18638.608    
    198000   1.0566904      0.0023323615  -0.0007896661   20.700466      19.131281      1.5691853     -1.3727421      18421.822    
    199000   0.95350462     0.0023323615  -0.0015969116   20.766314      19.35036       1.4159544     -1.095887       18553.476    
    200000   0.97724446     0.0023323615   0.0023799265   20.950253      19.499045      1.451208      -1.0520627      18742.809    
    201000   1.0330436      0.0023323615  -0.0033102386   21.102062      19.567993      1.5340698     -1.0617578      18882.796    
    202000   1.0792958      0.0023323615  -0.0012941187   21.089416      19.486662      1.6027543     -1.1069009      18718.085    
    203000   1.0495779      0.0023323615   0.00035582983  21.182959      19.624335      1.5586233     -0.94479384     18594.864    
    204000   1.0149452      0.0023323615   0.00072928624  20.866057      19.358863      1.5071936     -1.0510471      18638.949    
    205000   1.1535056      0.0023323615   0.0039772103   21.031665      19.318709      1.7129558     -1.1729522      18530.305    
    206000   0.96920867     0.0023323615  -0.0022039117   20.576343      19.137068      1.4392749     -1.3372754      18468.852    
    207000   0.94235549     0.0023323615  -0.0011941644   20.876719      19.477321      1.3993979     -1.0374938      18440.957    
    208000   1.0702702      0.0023323615  -0.001854373    20.842692      19.25334       1.5893512     -1.2728706      18461.064    
    209000   1.0940116      0.0023323615  -0.00028294672  20.853278      19.228671      1.6246072     -1.3004271      18432.167    
    210000   0.84901221     0.0023323615  -0.0032736032   20.607931      19.347148      1.2607831     -1.0340484      18401.927    
    211000   0.95983968     0.0023323615   0.0019868023   20.601902      19.17654       1.4253619     -1.3757589      18424.117    
    212000   0.94071718     0.0023323615   0.0029203093   20.771214      19.374249      1.396965      -1.1115501      18474.714    
    213000   0.89904242     0.0023323615  -0.0031908218   20.815007      19.479929      1.335078      -1.0600303      18541.413    
    214000   0.86575333     0.0023323615   0.0023573901   20.533297      19.247653      1.2856437     -1.3103065      18430.976    
    215000   0.97604988     0.0023323615   0.0011050467   20.650576      19.201142      1.4494341     -1.3314813      18599.226    
    216000   1.0187197      0.0023323615   0.00011617824  20.892518      19.379719      1.5127987     -1.1478791      18512.464    
    217000   0.87814246     0.0023323615   0.0034136954   20.656292      19.352251      1.3040415     -1.2049326      18436.103    
    218000   0.97700716     0.0023323615  -0.0015219385   20.919624      19.468768      1.4508556     -1.0143188      18552.093    
    219000   0.93214157     0.0023323615  -0.0042893611   20.706903      19.322673      1.3842302     -1.1845516      18434.996    
    220000   0.88985547     0.0023323615   8.8022156e-05  20.744663      19.423228      1.3214354     -1.2665992      18253.35     
    221000   1.0066053      0.0023323615   0.00039826444  21.261367      19.766558      1.4948089     -0.96982654     18368.63     
    222000   1.0424908      0.0023323615  -0.00074705931  21.102592      19.554493      1.5480988     -1.0924263      18495.964    
    223000   1.0908537      0.0023323615  -0.0042862668   21.404957      19.785039      1.6199177     -0.87517418     18551.1      
    224000   1.0046605      0.0023323615  -0.0028189772   20.779359      19.287438      1.4919208     -1.3271338      18364.115    
    225000   0.87910604     0.0023323615   0.0024122144   20.603845      19.298372      1.3054725     -1.3151702      18360.849    
    226000   1.0783856      0.0023323615   0.0023787967   20.894248      19.292845      1.6014026     -1.2442157      18214.075    
    227000   1.0538781      0.0023323615   0.0021992402   20.667754      19.102745      1.5650089     -1.4727911      18267.531    
    228000   1.0466111      0.0023323615  -0.00069359051  20.744008      19.189791      1.5542175     -1.3486406      18406.698    
    229000   0.9268537      0.0023323615   0.0003410204   20.77749       19.401112      1.3763777     -1.0529763      18428.128    
    230000   0.89470256     0.0023323615  -0.0011831102   20.764183      19.43555       1.3286333     -1.0288445      18481.936    
    231000   1.1588163      0.0023323615  -0.00031991466  21.201705      19.480862      1.7208422     -1.0518329      18490.824    
    232000   1.0600049      0.0023323615  -0.0034989257   21.281388      19.707281      1.5741072     -0.80569419     18545.137    
    233000   1.0342785      0.0023323615   0.00087191293  21.06543       19.529527      1.5359036     -1.0166521      18495.556    
    234000   1.0920707      0.0023323615  -0.0029870306   21.172163      19.550438      1.621725      -0.99205908     18542.512    
    235000   1.1937582      0.0023323615   0.00017059673  21.228076      19.455345      1.7727309     -0.99041813     18618.495    
    236000   0.89790852     0.0023323615   0.0012098301   20.486953      19.153559      1.3333942     -1.3894567      18550.211    
    237000   0.92009381     0.0023323615  -0.0029484899   20.921167      19.554827      1.3663393     -0.99364478     18357.421    
    238000   0.91015534     0.0023323615   0.0024808202   20.559925      19.208344      1.3515807     -1.1868823      18470.656    
    239000   1.0738591      0.0023323615  -0.0038499235   21.108557      19.513876      1.5946807     -0.98447437     18572.868    
    240000   0.88517382     0.0023323615  -0.0006213935   20.906072      19.591588      1.3144831     -0.94636015     18730.087    
    241000   0.96691614     0.0023323615  -0.00013547911  21.193018      19.757147      1.4358705     -0.85766842     18874.694    
    242000   0.92669083     0.0023323615   0.0029285049   21.268518      19.892382      1.3761359     -0.74118661     18861.191    
    243000   1.0606104      0.0023323615   0.00034663732  20.976518      19.401511      1.5750065     -1.0875161      18719.717    
    244000   0.83931376     0.0023323615  -0.0031801613   20.729964      19.483583      1.2463809     -0.97788788     18631.83     
    245000   0.92567462     0.0023323615  -0.00064097847  20.916384      19.541757      1.3746268     -1.0266594      18727.04     
    246000   1.0133239      0.0023323615  -0.0050398094   20.964748      19.459962      1.504786      -1.1283386      18721.388    
    247000   1.0398461      0.0023323615   0.0015407656   21.001245      19.457073      1.5441714     -1.151717       19123.127    
    248000   1.1459011      0.0023323615  -0.0017483267   21.179234      19.477571      1.7016631     -1.1337267      19173.703    
    249000   0.86983857     0.0023323615  -0.00079278962  20.737707      19.445996      1.2917103     -1.0889011      18882.197    
    250000   1.0268167      0.0023323615  -0.00098430087  20.915586      19.390763      1.5248227     -1.1208177      18636.471    
    251000   0.83715887     0.0023323615  -0.0014581758   20.768978      19.525797      1.2431809     -1.0544493      18488.899    
    252000   1.0304845      0.0023323615  -0.0010664068   20.854831      19.324561      1.5302695     -1.0028539      18599.68     
    253000   0.8708328      0.0023323615  -0.0017505202   20.89799       19.604803      1.2931867     -1.0356639      18519.541    
    254000   0.92347489     0.0023323615   0.0004674176   20.724661      19.3533        1.3713602     -1.260743       18602.956    
    255000   1.0557968      0.0023323615  -0.0004056947   20.777161      19.209303      1.5678583     -1.1957063      18555.176    
    256000   0.86871079     0.0023323615   0.0022363192   20.613575      19.32354       1.2900355     -1.1639086      18640.529    
    257000   0.97810771     0.0023323615   0.0032142279   20.870555      19.418065      1.45249       -1.0166443      18673.698    
    258000   0.96257431     0.0023323615  -0.0025357218   20.796037      19.366614      1.4294229     -1.0609413      18611.746    
    259000   0.92948583     0.0023323615  -0.0012058479   20.843976      19.46369       1.3802865     -0.97746088     18650.916    
    260000   0.82735742     0.0023323615  -0.0023512341   20.754734      19.526108      1.2286258     -0.98156256     18643.28     
    261000   0.99779226     0.0023323615   0.0015828389   20.671969      19.190247      1.4817215     -1.2708787      18490.985    
    262000   0.91557964     0.0023323615   0.0026500577   20.758491      19.398856      1.3596358     -1.158496       18332.972    
    263000   0.97412381     0.0023323615  -0.0008846989   20.99049       19.543916      1.4465739     -0.92313475     18469.925    
    264000   1.0011421      0.0023323615  -0.0025560795   20.775997      19.289301      1.4866961     -1.1853353      18619.315    
    265000   1.0697614      0.0023323615  -0.003361412    20.997333      19.408737      1.5885957     -1.2068731      18496.941    
    266000   0.97337246     0.0023323615  -0.00071703932  20.855047      19.409589      1.4454581     -1.1531906      18533.97     
    267000   0.79804264     0.0023323615   0.0020595079   20.591866      19.406773      1.1850933     -1.1939087      18650.198    
    268000   1.1112495      0.0023323615  -0.0004176402   20.891327      19.241121      1.6502055     -1.1605695      18860.428    
    269000   0.95074134     0.0023323615   0.0009642578   21.089921      19.67807       1.4118509     -0.88143954     18822.163    
    270000   0.97897319     0.0023323615   0.0011675358   20.807843      19.354068      1.4537752     -1.1425017      18726.411    
    271000   0.99526116     0.0023323615   0.00046813227  20.854794      19.376831      1.4779628     -1.1020251      18687.389    
    272000   0.98616095     0.0023323615  -0.00067947291  20.675044      19.210595      1.464449      -1.2833167      18575.242    
    273000   1.0821608      0.0023323615   0.0027057252   20.825838      19.218829      1.6070088     -1.193263       18683.608    
    274000   1.0694314      0.0023323615  -0.00056373893  21.222692      19.634586      1.5881056     -0.84049888     18679.912    
    275000   1.0735527      0.0023323615   0.0026377476   21.253603      19.659377      1.5942258     -0.91017905     18707.97     
    276000   0.94401899     0.0023323615  -0.0017780994   20.967578      19.565709      1.4018682     -1.1560456      18770.269    
    277000   1.1048579      0.0023323615   0.0024846988   21.171862      19.531148      1.6407139     -1.1308457      18521.887    
    278000   0.99198539     0.0023323615   0.0018999044   20.901527      19.428429      1.4730983     -1.0384392      18662.319    
    279000   0.91139542     0.0023323615   0.0017456771   20.977216      19.623794      1.3534222     -0.88282177     18830.76     
    280000   1.0271633      0.0023323615   0.00016099269  21.009913      19.484575      1.5253375     -0.96118026     18740.514    
    281000   1.1442587      0.0023323615  -0.0017259523   21.361487      19.662263      1.6992242     -0.85866294     19149.289    
    282000   0.99751587     0.0023323615   0.00053918526  21.215162      19.733851      1.4813111     -0.69184159     19416.63     
    283000   0.94096395     0.0023323615   0.00076813128  21.293147      19.895816      1.3973315     -0.65342266     20386.524    
    284000   1.0160819      0.0023323615  -0.0017195947   20.824583      19.315702      1.5088816     -1.117876       19422.815    
    285000   0.92945671     0.0023323615   0.0010031383   20.809896      19.429653      1.3802432     -1.0393608      19318.429    
    286000   1.0212297      0.0023323615   0.0036180056   20.826679      19.310153      1.5165262     -1.1965693      18682.01     
    287000   0.8856905      0.0023323615  -0.0024695296   20.510077      19.194826      1.3152504     -1.3270098      18088.05     
    288000   0.9247802      0.0023323615  -5.2705507e-05  20.715404      19.342106      1.3732986     -1.1531412      18621.878    
    289000   1.029505       0.0023323615  -0.00054365958  20.962471      19.433656      1.5288149     -1.1217549      18405.313    
    290000   0.97051021     0.0023323615  -0.0012016308   20.871289      19.430082      1.4412077     -1.1580769      18477.915    
    291000   0.95753105     0.0023323615   0.00182725     20.907948      19.486015      1.4219336     -1.0033597      18575.215    
    292000   1.0319783      0.0023323615  -0.0013342355   20.893187      19.3607        1.5324878     -1.2085537      18479.989    
    293000   1.0806018      0.0023323615  -0.0030214228   20.973447      19.368753      1.6046937     -1.1129377      18432.222    
    294000   0.96059039     0.0023323615  -0.002926533    20.689174      19.262697      1.4264767     -1.2411086      18545.275    
    295000   1.0311142      0.0023323615  -0.0019110232   21.202011      19.670806      1.5312046     -0.87729371     18427.835    
    296000   1.1147277      0.0023323615   0.0022382021   21.121601      19.46623       1.6553706     -0.97628612     18455.8      
    297000   0.80471264     0.0023323615   0.0026930215   20.486998      19.292         1.1949983     -1.2494605      18725.747    
    298000   0.7943143      0.0023323615  -0.0039358261   20.506992      19.327435      1.1795567     -1.1763495      18476.171    
    299000   0.974463       0.0023323615   0.0014788939   20.643413      19.196336      1.4470776     -1.3007745      18334.363    
    300000   1.0045396      0.0023323615   0.0016087312   20.907361      19.415619      1.4917412     -1.1353997      18371.923    
    301000   0.95978628     0.0023323615   0.0053505266   20.627104      19.201822      1.4252826     -1.2802304      18346.158    
    302000   1.0217793      0.0023323615   0.001543667    20.965812      19.44847       1.5173422     -1.1345863      18500.654    
    303000   1.0481528      0.0023323615   0.00071092399  21.144154      19.587647      1.5565069     -1.0153413      18581.066    
    304000   1.111281       0.0023323615  -0.0039875914   21.171332      19.52108       1.6502522     -1.0154208      18625.861    
    305000   0.98312858     0.0023323615  -0.0015321966   20.886782      19.426836      1.4599459     -1.169557       18520.427    
    306000   1.008634       0.0023323615   0.00093174242  21.131583      19.633762      1.4978214     -1.0926554      18380.862    
    307000   0.97608089     0.0023323615  -0.0026412836   21.064721      19.61524       1.4494801     -1.005937       18334.781    
    308000   0.99134993     0.0023323615  -0.00026225812  20.972733      19.500578      1.4721546     -1.1332617      18621.913    
    309000   0.99338282     0.0023323615  -0.0025167374   21.027207      19.552033      1.4751735     -0.91232784     18838.099    
    310000   0.84985261     0.0023323615   0.00088676101  20.776743      19.514712      1.2620311     -0.97808816     19301.111    
    311000   0.94719531     0.0023323615   0.0038239826   20.900965      19.49438       1.406585      -0.99169596     18961.798    
    312000   0.93578338     0.0023323615  -0.0011658438   20.837692      19.448053      1.3896383     -1.1849289      18458.779    
    313000   1.016157       0.0023323615  -0.0032816136   20.726714      19.217721      1.5089931     -1.2241184      18403.762    
    314000   1.1775569      0.0023323615   0.00061440136  21.107369      19.358697      1.748672      -1.2696864      18478.514    
    315000   0.95718716     0.0023323615  -0.00010917671  20.969722      19.548299      1.4214229     -1.1004317      18560.8      
    316000   0.98491926     0.0023323615   0.001234303    20.864476      19.401871      1.4626051     -1.1343526      18414.481    
    317000   1.017117       0.0023323615  -0.0019206318   21.207859      19.697441      1.5104187     -0.94442289     18364.132    
    318000   1.1113119      0.0023323615   8.1931329e-05  21.280368      19.63007       1.6502982     -1.0022434      18413.353    
    319000   0.96322804     0.0023323615   0.0033185057   20.844992      19.414598      1.4303936     -1.036556       18627.491    
    320000   0.81781202     0.0023323615  -0.0016952845   20.657329      19.442878      1.2144508     -1.024997       18315.97     
    321000   0.98843784     0.0023323615   0.0027009758   20.931934      19.464104      1.4678302     -1.0298398      18508.057    
    322000   1.0711396      0.0023323615  -0.00017606656  20.692232      19.10159       1.5906423     -1.3712863      18600.113    
    323000   0.87326731     0.0023323615  -0.0027451185   20.744649      19.447847      1.296802      -1.1494103      18455.657    
    324000   1.1533201      0.0023323615  -0.0018585055   21.035178      19.322498      1.7126803     -1.1584785      18554.9      
    325000   1.0642383      0.0023323615  -0.0011107964   20.951598      19.371205      1.5803939     -1.1482876      18550.352    
    326000   1.0570277      0.0023323615  -0.0015055994   21.123332      19.553646      1.5696861     -1.0128312      18740.394    
    327000   1.0628049      0.0023323615   0.00023180134  20.976778      19.398513      1.5782653     -1.0976023      18886.566    
    328000   1.0768972      0.0023323615  -0.00079940924  21.070861      19.471669      1.5991924     -1.0760585      18631.611    
    329000   0.93852855     0.0023323615  -0.0033767737   21.06587       19.672156      1.3937149     -0.86221126     18729.641    
    330000   1.0102794      0.0023323615  -0.0035782676   21.33869       19.838425      1.5002648     -0.77589472     19036.383    
    331000   0.94377225     0.0023323615   0.0021747734   20.822045      19.420543      1.4015018     -1.032771       18823.42     
    332000   1.1141031      0.0023323615  -0.0017344327   20.855314      19.200871      1.6544432     -1.325728       18441.918    
    333000   0.88567716     0.0023323615  -0.0051459516   20.847927      19.532697      1.3152306     -1.0622154      18413.153    
    334000   0.96274469     0.0023323615  -0.0029928509   20.684398      19.254722      1.4296759     -1.2238577      18466.119    
    335000   0.92376421     0.0023323615  -0.00019472941  20.691541      19.319751      1.3717898     -1.1942517      18553.859    
    336000   1.0615105      0.0023323615   0.0023800372   20.921243      19.344899      1.5763431     -1.1417235      18436.518    
    337000   0.89471306     0.0023323615  -0.0013826876   20.829855      19.501206      1.3286489     -1.0577581      18519.303    
    338000   0.90878295     0.0023323615  -0.00040772311  20.869672      19.52013       1.3495427     -1.0181835      18568.59     
    339000   1.0670795      0.0023323615   6.2700018e-06  21.247046      19.662433      1.5846131     -0.8585057      18862.628    
    340000   0.86097187     0.0023323615   0.0029713336   20.768239      19.489696      1.2785432     -1.0932299      19039.008    
    341000   0.97091636     0.0023323615   0.0029965633   21.096397      19.654586      1.4418108     -0.89322252     19433.986    
    342000   1.0322579      0.0023323615   0.00061770769  21.146686      19.613784      1.5329029     -0.90794466     20477.064    
    343000   1.0586072      0.0023323615   0.0003486763   21.267213      19.695181      1.5720317     -0.89898711     19994.534    
    344000   1.0706337      0.0023323615   0.00039817441  21.162553      19.572662      1.589891      -1.1701344      18789.94     
    345000   1.162955       0.0023323615  -0.00077583739  21.037826      19.310838      1.7269882     -1.1985967      18531.657    
    346000   0.89708017     0.0023323615  -0.0018687344   21.040619      19.708455      1.3321641     -0.93307838     18570.342    
    347000   1.0110379      0.0023323615  -0.0013688599   21.041609      19.540218      1.5013913     -0.9384981      18822.56     
    348000   1.1149629      0.0023323615  -0.0013983886   21.30646       19.65074       1.6557199     -0.93457382     19185.328    
    349000   1.1604618      0.0023323615  -0.00032381872  21.467331      19.744045      1.7232858     -0.93281423     18666.549    
    350000   0.95499918     0.0023323615  -0.0014779971   20.861361      19.443188      1.4181738     -1.0847171      18764.549    
    351000   0.91038997     0.0023323615   0.0018511821   20.887495      19.535566      1.3519291     -0.90200259     18782.307    
    352000   0.92827714     0.0023323615  -0.0015588401   20.864805      19.486314      1.3784916     -1.0263379      18611.937    
    353000   0.89966318     0.0023323615   0.0021981391   20.933976      19.597977      1.3359998     -1.0075077      18531.998    
    354000   0.97319293     0.0023323615   0.0059098876   20.868628      19.423437      1.4451915     -1.1073048      18483.849    
    355000   1.0199102      0.0023323615   0.00049782002  21.259856      19.745289      1.5145666     -0.84164192     18784.275    
    356000   0.97099958     0.0023323615   0.00027781923  20.844257      19.402323      1.4419344     -1.0235232      18857.909    
    357000   1.1312095      0.0023323615  -0.0022667331   21.230636      19.55079       1.6798461     -1.0190287      18608.339    
    358000   1.1211476      0.0023323615   0.0054901174   21.373468      19.708563      1.6649042     -0.90782511     18786.209    
    359000   0.89160103     0.0023323615   0.0024984732   20.886314      19.562287      1.3240275     -0.97828766     18742.129    
    360000   0.99395815     0.0023323615  -0.0012657114   21.002246      19.526218      1.4760279     -0.91512051     19060.972    
    361000   0.97579074     0.0023323615  -0.0028774589   21.11675       19.667701      1.4490492     -0.81356364     19142.22     
    362000   1.1209122      0.0023323615  -0.0011346864   21.183079      19.518524      1.6645547     -1.0850784      18632.526    
    363000   0.92363304     0.0023323615   0.00065278496  20.973827      19.602232      1.3715951     -0.84001277     18718.092    
    364000   1.0201389      0.0023323615   0.0049575962   21.077771      19.562865      1.5149063     -0.91665608     19353.67     
    365000   1.012263       0.0023323615   0.0016967081   21.242354      19.739144      1.5032105     -0.81790395     20084.782    
    366000   1.0736379      0.0023323615  -0.0040368077   21.393971      19.799619      1.5943523     -0.89996402     20337.053    
    367000   0.93579276     0.0023323615  -0.0015299796   20.743953      19.354301      1.3896522     -1.0639118      19459.629    
    368000   1.0075542      0.0023323615   0.0031294069   20.858546      19.362328      1.496218      -1.0847046      18590.863    
    369000   1.1326317      0.0023323615   0.0015986956   21.201346      19.519387      1.6819581     -1.0207901      18498.069    
    370000   1.0827799      0.0023323615   0.0025235378   21.188069      19.580141      1.6079281     -0.99971877     18587.72     
    371000   1.1383112      0.0023323615   0.00039207646  21.057085      19.366692      1.6903921     -1.0921497      18631.862    
    372000   1.0853393      0.0023323615  -0.0014081591   21.167507      19.555779      1.6117289     -0.99982        18657.163    
    373000   0.99860792     0.0023323615  -0.00092614524  21.03442       19.551487      1.4829328     -0.95972784     18831.286    
    374000   1.1031012      0.0023323615  -0.0026273752   21.169092      19.530987      1.6381053     -0.94376061     19235.337    
    375000   0.89815198     0.0023323615   0.0023875226   20.668989      19.335233      1.3337557     -1.1029145      19770.328    
    376000   0.97351808     0.0023323615   0.00028998822  20.66553       19.219856      1.4456743     -1.17825        19275.489    
    377000   1.1213095      0.0023323615   3.7611776e-05  21.203683      19.538538      1.6651446     -0.89812605     19461.321    
    378000   1.1192348      0.0023323615   0.00032593936  21.068467      19.406403      1.6620637     -1.1223321      20430.335    
    379000   0.90635211     0.0023323615  -0.0037310138   20.790918      19.444985      1.3459329     -1.085713       19942.652    
    380000   0.99530961     0.0023323615  -0.0027547362   21.054089      19.576055      1.4780348     -0.872033       20688.719    
    381000   0.83647831     0.0023323615  -0.0019993604   20.698886      19.456716      1.2421703     -1.0305781      21548.603    
    382000   0.96948782     0.0023323615   0.0033652601   21.127863      19.688174      1.4396894     -0.85624566     21811.742    
    383000   0.81219852     0.0023323615  -0.00093488585  20.869196      19.663081      1.2061148     -0.78013919     20780.62     
    384000   1.0134331      0.0023323615  -3.6074369e-05  21.084074      19.579126      1.5049482     -0.89026576     7069.7332    
    385000   0.95343415     0.0023323615   0.00087482961  21.020601      19.604751      1.4158497     -0.9772754      18654.629    
    386000   0.87584898     0.0023323615   0.00080053359  20.70831       19.407674      1.3006357     -1.05848        18394.015    
    387000   1.0083139      0.0023323615   0.0029866381   20.80761       19.310264      1.4973461     -1.0883878      18274.103    
    388000   0.9363582      0.0023323615  -0.00099570102  20.869258      19.478767      1.3904919     -1.0686243      18445.99     
    389000   0.97252058     0.0023323615   0.0013468051   20.855452      19.411259      1.4441931     -1.0759192      18586.588    
    390000   0.94152886     0.0023323615   0.0029895711   21.009706      19.611535      1.3981704     -1.0359055      18431.504    
    391000   1.0468046      0.0023323615   0.00073630239  21.307194      19.752689      1.5545048     -0.91808807     18559.223    
    392000   1.181345       0.0023323615   0.0053857748   21.29781       19.543513      1.7542974     -1.0730567      18545.13     
    393000   0.87174997     0.0023323615   0.0033291924   20.730431      19.435882      1.2945487     -1.1074972      18475.997    
    394000   0.91953416     0.0023323615  -0.0022894504   20.86834       19.502831      1.3655082     -1.1225082      18289.627    
    395000   1.0071724      0.0023323615   0.00202315     20.94076       19.445109      1.495651      -1.1015382      18578.555    
    396000   0.93436733     0.0023323615  -0.0024360617   20.935865      19.54833       1.3875355     -1.1194744      18549.738    
    397000   1.1010686      0.0023323615  -0.0022357224   21.109424      19.474337      1.6350869     -1.1172885      18329.488    
    398000   0.90277614     0.0023323615   0.00027532749  20.660226      19.319603      1.3406226     -1.2107091      18311.326    
    399000   0.94481503     0.0023323615   0.0033057036   20.777334      19.374283      1.4030503     -1.2475509      18180.568    
    400000   0.90894668     0.0023323615   0.0010697785   20.66711       19.317324      1.3497858     -1.1381371      18406.745    
    401000   0.91930712     0.0023323615  -0.0028165041   20.601824      19.236653      1.3651711     -1.2159291      18428.839    
    402000   1.0814955      0.0023323615  -0.00053997574  21.320871      19.71485       1.6060208     -0.99048777     18463.454    
    403000   1.040932       0.0023323615   0.0038555104   20.8306        19.284816      1.545784      -1.1219745      18519.753    
    404000   0.94374065     0.0023323615   0.0033294034   20.843174      19.441719      1.4014549     -1.1317547      18706.305    
    405000   1.0131924      0.0023323615   0.0017138657   21.06303       19.558439      1.5045908     -1.023861       18697.849    
    406000   1.0672661      0.0023323615   0.00062384088  21.018278      19.433387      1.5848902     -1.0736418      19837.192    
    407000   1.028351       0.0023323615  -0.0013065836   21.017583      19.490482      1.5271012     -0.98220817     20520.401    
    408000   1.0721738      0.0023323615  -0.0013415191   21.185432      19.593254      1.5921781     -0.9728541      20603.058    
    409000   1.0791567      0.0023323615   0.00062486417  21.145918      19.54337       1.6025477     -1.0490051      19251.449    
    410000   0.9978179      0.0023323615  -0.0011933198   21.064807      19.583047      1.4817596     -0.96329128     18475.617    
[...]
    861000   0.98562123     0.0023323615  -0.0038557312   20.990267      19.52662       1.4636475     -1.0475394      18185.112    
    862000   0.95946576     0.0023323615  -0.0013861144   21.078628      19.653821      1.4248067     -0.88176142     18577.932    
    863000   0.98631614     0.0023323615  -0.0017224299   20.648417      19.183738      1.4646795     -1.3654358      18481.741    
    864000   1.0094567      0.0023323615  -0.00071114062  20.754613      19.25557       1.4990432     -1.3061923      18680.873    
    865000   1.2650969      0.0023323615   0.0060457725   21.26052       19.381851      1.8786689     -1.000819       18500.63     
    866000   1.035161       0.0023323615   0.005000513    20.889564      19.35235       1.5372141     -1.1221401      18560.352    
    867000   1.0467156      0.0023323615   0.0024509268   20.894591      19.340218      1.5543727     -1.1903775      18329.686    
    868000   0.9069443      0.0023323615   0.0015585603   20.401017      19.054204      1.3468123     -1.4456285      18326.466    
    869000   1.0763297      0.0023323615  -0.00028742872  21.029791      19.431442      1.5983495     -1.1952593      18288.39     
    870000   0.93805905     0.0023323615   0.0031034991   20.900347      19.50733       1.3930177     -1.0758243      18499.845    
    871000   0.96482151     0.0023323615   0.00088283991  20.781848      19.349088      1.4327599     -1.1376891      18784.678    
    872000   1.0064004      0.0023323615  -0.00093970813  21.048236      19.553732      1.4945046     -0.94102007     19308.731    
    873000   0.97001265     0.0023323615  -0.0023577721   21.141973      19.701504      1.4404688     -0.95352024     19182.422    
    874000   1.074881       0.0023323615  -0.0013372992   20.882389      19.286191      1.5961983     -1.2206115      18595.553    
    875000   0.96649125     0.0023323615  -0.0011671901   20.967624      19.532384      1.4352395     -1.0027634      18643.921    
    876000   0.93302555     0.0023323615  -0.0025139251   20.800104      19.414561      1.3855429     -1.1933949      18746.645    
    877000   0.84208166     0.0023323615  -0.0029142888   20.961828      19.711336      1.2504913     -0.81385339     19338.098    
    878000   1.116455       0.0023323615   0.0037712413   21.021996      19.36406       1.6579357     -1.1648554      18841.872    
    879000   1.0556519      0.0023323615  -0.00077659607  21.21468       19.647037      1.5676431     -0.94914082     18468.428    
    880000   0.90579359     0.0023323615  -0.0038989037   20.707923      19.362819      1.3451035     -1.1597566      18459.53     
    881000   1.0791389      0.0023323615   0.00024870181  21.140741      19.53822       1.6025213     -1.0821297      18522.551    
    882000   1.0514436      0.0023323615  -0.002484922    20.796113      19.234719      1.5613937     -1.2527718      18448.688    
    883000   1.0309406      0.0023323615  -0.0029360355   20.948547      19.4176        1.5309467     -1.1537178      18353.937    
    884000   0.95306595     0.0023323615   0.0012933952   20.609198      19.193895      1.4153029     -1.179537       18223.902    
    885000   0.90444291     0.0023323615   0.00046270971  20.734386      19.391288      1.3430977     -1.1832285      18325.318    
    886000   0.96159317     0.0023323615  -0.0034318224   20.76342       19.335454      1.4279659     -1.1829981      18380.875    
    887000   0.91463116     0.0023323615  -0.00058515987  20.917474      19.559247      1.3582273     -0.9162679      18755.875    
    888000   0.90457908     0.0023323615  -4.1947211e-05  20.737467      19.394167      1.3432999     -1.1018244      18697.44     
    889000   0.94151592     0.0023323615   0.0019778263   21.007762      19.609611      1.3981511     -0.92578857     18716.723    
    890000   0.94831575     0.0023323615   0.0016400679   20.777468      19.369219      1.4082489     -1.1793124      18389.931    
    891000   0.97123379     0.0023323615  -0.0026677222   20.702637      19.260355      1.4422822     -1.214852       18637.592    
    892000   0.99593736     0.0023323615  -0.00165518     20.837648      19.358681      1.478967      -1.2735015      18565.033    
    893000   0.97327373     0.0023323615  -0.0013831626   20.899268      19.453956      1.4453115     -1.1188365      18934.209    
    894000   1.0670911      0.0023323615   0.0011371322   21.150828      19.566197      1.5846303     -0.99130857     19547.633    
    895000   1.1540253      0.0023323615  -0.0032573029   21.254593      19.540865      1.7137276     -0.970594       20373.886    
    896000   1.1146387      0.0023323615   0.0031574855   21.252025      19.596787      1.6552384     -0.93315317     21031.278    
    897000   1.0075361      0.0023323615   0.00049682721  21.017969      19.521778      1.496191      -0.92724925     21351.104    
    898000   1.0114558      0.0023323615   0.0053497293   21.199433      19.697421      1.5020118     -0.84344689     21229.834    
    899000   0.74637321     0.0023323615  -0.002342457    20.624339      19.515975      1.1083642     -0.9863201      19826.706    
    900000   0.91000124     0.0023323615  -0.00085188519  20.975737      19.624385      1.3513518     -1.0737117      18888.203    
    901000   0.97144123     0.0023323615  -0.0019484654   20.870334      19.427744      1.4425902     -1.1240096      18529.872    
    902000   0.93669715     0.0023323615  -0.0038429      20.805203      19.414208      1.3909953     -1.0911274      18329.767    
    903000   1.0073734      0.0023323615   0.0038107819   20.939396      19.443447      1.4959494     -1.0379519      18553.952    
    904000   0.96156258     0.0023323615  -0.0054073168   20.80637       19.37845       1.4279204     -1.1951168      18549.045    
    905000   1.055964       0.0023323615  -0.0045109308   20.971413      19.403306      1.5681065     -1.1708951      18275.783    
    906000   0.94707021     0.0023323615  -0.0012156294   20.812226      19.405827      1.4063993     -1.0711327      18373.33     
    907000   0.88970112     0.0023323615  -0.0019477595   20.820948      19.499742      1.3212062     -1.0234395      18542.777    
    908000   1.0983545      0.0023323615  -3.4572918e-05  21.069164      19.438108      1.6310564     -0.9911354      18816.72     
    909000   1.0436208      0.0023323615  -0.0044359574   20.839655      19.289878      1.5497768     -1.1709752      18360.17     
    910000   0.93953762     0.0023323615  -0.0046681396   20.545962      19.150749      1.3952134     -1.3710715      18242.521    
    911000   1.0844642      0.0023323615  -0.00029908188  21.250336      19.639906      1.6104294     -1.0072512      18248.585    
    912000   0.97350167     0.0023323615  -0.0029181843   20.996912      19.551262      1.44565       -1.012449       18949.353    
    913000   0.95329082     0.0023323615  -2.2249618e-05  20.749085      19.333449      1.4156369     -1.078744       18917.322    
    914000   0.96989602     0.0023323615  -5.2962449e-05  20.749338      19.309042      1.4402956     -1.1940641      18685.885    
    915000   1.0545609      0.0023323615  -0.0033589151   21.226796      19.660773      1.5660229     -0.90951002     18569.109    
    916000   0.91073834     0.0023323615  -4.0364493e-05  20.854732      19.502286      1.3524464     -1.1418863      18683.02     
    917000   0.87473054     0.0023323615  -0.00077667494  20.731555      19.43258       1.2989749     -1.0899709      18265.566    
    918000   1.0410508      0.0023323615  -0.0015714136   21.015052      19.469092      1.5459604     -0.94782707     18376.558    
    919000   0.95525645     0.0023323615  -0.0016659733   20.846149      19.427593      1.4185558     -1.0888059      18535.835    
    920000   0.95329962     0.0023323615  -0.003401805    20.903833      19.488183      1.4156499     -0.95991066     18607.857    
    921000   1.0079658      0.0023323615  -0.0016358579   20.875721      19.378892      1.4968293     -1.1067417      18513.501    
    922000   1.1270046      0.0023323615   0.0013268667   20.967754      19.294152      1.6736018     -1.1227154      18423.356    
    923000   1.0256994      0.0023323615   0.00026150723  21.052644      19.52948       1.5231635     -1.1052028      18428.145    
    924000   1.1039383      0.0023323615  -0.0029814015   20.979323      19.339975      1.6393484     -1.1344614      18308.397    
    925000   0.89683015     0.0023323615   0.0012722007   20.766135      19.434342      1.3317928     -1.1348902      18261.475    
    926000   0.9607035      0.0023323615   0.0014910905   20.919333      19.492688      1.4266447     -1.0391807      18279.759    
    927000   1.0319706      0.0023323615  -0.0014209916   20.88285       19.350373      1.5324764     -1.0478026      18309.623    
    928000   1.0717165      0.0023323615   0.00042749475  20.811214      19.219715      1.591499      -1.3689093      18331.77     
    929000   0.99863556     0.0023323615  -9.8136096e-05  20.651606      19.168632      1.4829738     -1.1982023      18443.079    
    930000   1.1073337      0.0023323615   0.0001388788   21.124977      19.480586      1.6443906     -1.0874296      18454.38     
    931000   1.0828947      0.0023323615  -0.0017944343   21.002484      19.394385      1.6080986     -1.0986387      18482.507    
    932000   1.0466389      0.0023323615  -0.00070433095  21.232347      19.678088      1.5542588     -0.85813003     18795.184    
    933000   1.1619621      0.0023323615  -0.0014935853   21.103927      19.378413      1.7255137     -1.0714375      18839.628    
    934000   0.97454177     0.0023323615   0.0017012769   20.790474      19.34328       1.4471945     -1.0867898      18609.65     
    935000   0.93172698     0.0023323615  -0.0021363564   20.803462      19.419847      1.3836146     -0.97220712     18619.846    
    936000   0.98606961     0.0023323615   0.00030532423  20.857246      19.392933      1.4643134     -1.0403366      18695.114    
    937000   0.94991572     0.0023323615  -0.0022180882   20.954916      19.544292      1.4106248     -1.0052346      19021.679    
    938000   0.93493728     0.0023323615   0.00029655015  20.564934      19.176552      1.3883819     -1.2834715      19613.671    
    939000   0.93358742     0.0023323615   0.00070450322  21.007133      19.620756      1.3863773     -0.93247823     18937.485    
    940000   1.0471399      0.0023323615   0.0057893942   20.79402       19.239017      1.5550027     -1.2495356      18520.355    
    941000   0.98476747     0.0023323615   0.00039631771  20.596096      19.133717      1.4623797     -1.2987358      18336.344    
    942000   1.006993       0.0023323615   0.0034378327   20.841352      19.345967      1.4953846     -1.1883736      18551.583    
    943000   0.96979166     0.0023323615  -3.327412e-05   21.204078      19.763937      1.4401406     -0.9343043      18674.834    
    944000   1.0260475      0.0023323615   0.0035134512   20.958769      19.435089      1.5236806     -1.1104308      18623.72     
    945000   1.0081704      0.0023323615  -0.00079233529  21.004138      19.507005      1.4971331     -0.9623845      18469.204    
    946000   0.97685977     0.0023323615  -0.0018057227   20.871713      19.421076      1.4506368     -1.0991429      18675.487    
    947000   0.88126224     0.0023323615   0.00071698326  20.656976      19.348301      1.3086744     -1.0884323      18474.943    
    948000   1.0373823      0.0023323615  -0.0030199391   21.262425      19.721913      1.5405127     -0.8217648      18791.982    
    949000   0.98134214     0.0023323615   0.0013518199   21.119829      19.662536      1.4572931     -0.83046424     19020.958    
    950000   0.96772566     0.0023323615  -0.00057601879  21.023068      19.585995      1.4370726     -0.91893719     18730.639    
    951000   0.97729854     0.0023323615  -0.00086994954  20.921427      19.470138      1.4512883     -1.0467269      18437.09     
    952000   1.0234016      0.0023323615  -0.005096477    20.875312      19.355561      1.5197514     -1.1423122      18517.307    
    953000   1.0532004      0.0023323615   0.0020929977   20.861359      19.297357      1.5640026     -1.0677299      18532.201    
    954000   1.037368       0.0023323615  -0.00080735531  21.16565       19.625159      1.5404915     -0.9224085      18811.439    
    955000   1.1246193      0.0023323615   0.0053218379   20.960762      19.290703      1.6700596     -1.1915156      18779.907    
    956000   0.99997153     0.0023323615  -0.00012961093  21.070888      19.58593       1.4849577     -0.96577018     18606.063    
    957000   0.97273228     0.0023323615  -0.0010388242   20.979616      19.535109      1.4445074     -1.0343292      18363.403    
    958000   0.84031825     0.0023323615  -0.0014056672   20.520073      19.2722        1.2478726     -1.2150907      18533.605    
    959000   0.91410409     0.0023323615  -0.0014236109   21.026535      19.66909       1.3574446     -0.89287623     18717.046    
    960000   1.0239162      0.0023323615   0.00035442866  20.64136       19.120844      1.5205155     -1.2269224      18734.362    
    961000   0.93377592     0.0023323615   0.0025074584   20.978353      19.591696      1.3866572     -1.1216636      18546.237    
    962000   0.89087911     0.0023323615  -0.0022876802   20.698534      19.375579      1.3229555     -1.1588966      18634.3      
    963000   1.0597435      0.0023323615  -0.0019537998   21.108619      19.5349        1.5737191     -1.0731407      18992.358    
    964000   1.0652387      0.0023323615  -0.00033326087  20.950739      19.36886       1.5818795     -1.1308569      18769.973    
    965000   1.141684       0.0023323615  -0.001187464    21.016499      19.321098      1.6954008     -1.1507336      18335.973    
    966000   0.96206758     0.0023323615  -0.0019481591   20.471528      19.042857      1.4286704     -1.3872697      18319.738    
    967000   0.87406411     0.0023323615   0.0020047422   20.616271      19.318286      1.2979852     -1.2201636      18260.049    
    968000   1.097024       0.0023323615  -0.0039930286   20.793241      19.16416       1.6290807     -1.2401048      18324.387    
    969000   1.0178024      0.0023323615  -0.0027683338   20.926925      19.415488      1.5114366     -1.1333379      18354.028    
    970000   1.1924209      0.0023323615   0.00084449775  20.92152       19.150774      1.7707451     -1.2977114      18333.929    
    971000   1.0010591      0.0023323615   0.0025327871   20.924188      19.437615      1.4865728     -1.2275429      18124.794    
    972000   0.85982836     0.0023323615  -0.0022877386   20.579074      19.302229      1.2768451     -1.2709176      18167.42     
    973000   0.88657141     0.0023323615   0.000852697    20.72166       19.405102      1.3165585     -1.0364161      18328.919    
    974000   1.0486209      0.0023323615  -0.0011923347   21.357198      19.799997      1.557202      -0.85241592     18323.428    
    975000   1.0743767      0.0023323615   0.001609091    21.144397      19.548948      1.5954495     -0.99630626     18902.833    
    976000   1.053482       0.0023323615   0.00058693566  20.94744       19.38302       1.5644207     -1.1043526      18791.638    
    977000   0.87616802     0.0023323615   0.0015067014   20.800974      19.499864      1.3011095     -1.0889461      18291.665    
    978000   0.94153929     0.0023323615  -0.0064037504   21.165363      19.767177      1.3981858     -0.97722583     18348.013    
    979000   1.0486282      0.0023323615   9.4776107e-05  21.180354      19.623141      1.5572129     -0.94439461     18476.202    
    980000   0.97477448     0.0023323615  -0.0015520751   21.180544      19.733004      1.4475401     -0.7176562      18785.997    
    981000   1.1360647      0.0023323615   0.005266639    21.046434      19.359378      1.6870561     -1.113519       18550.376    
    982000   0.85770742     0.0023323615   0.0060767472   20.380622      19.106927      1.2736955     -1.332708       18307.249    
    983000   1.0562975      0.0023323615  -0.001302215    21.119852      19.551251      1.5686018     -0.89853016     18659.504    
    984000   1.0569476      0.0023323615   0.0055089991   20.922536      19.352969      1.5695671     -1.1413109      18648.623    
    985000   1.0014651      0.0023323615  -0.0039573134   20.797913      19.310738      1.4871757     -1.4497128      18244.635    
    986000   1.00206        0.0023323615  -0.0022919535   20.74107       19.253011      1.4880591     -1.3110584      18094.614    
    987000   1.0478909      0.0023323615   0.00018935025  20.856711      19.300593      1.556118      -1.2430575      18412.327    
    988000   1.0264474      0.0023323615  -0.0036413585   20.935057      19.410783      1.5242745     -1.0988192      18342.23     
    989000   0.9133887      0.0023323615  -0.0023861733   20.779319      19.422936      1.3563822     -1.0820356      18585.847    
    990000   1.0685814      0.0023323615   0.0021101818   20.908236      19.321393      1.5868434     -1.1471085      18383.401    
    991000   1.0771678      0.0023323615   0.0014795414   20.726564      19.126969      1.5995942     -1.2831684      18211.41     
    992000   0.86200312     0.0023323615   0.005667778    20.651856      19.371781      1.2800746     -1.219069       18265.733    
    993000   1.045196       0.0023323615   0.00064901973  21.130209      19.578093      1.5521161     -1.0022486      18364.737    
    994000   0.93921638     0.0023323615  -0.0033587324   20.667215      19.272478      1.3947363     -1.2607128      18203.698    
    995000   0.99871327     0.0023323615   0.00028565399  20.778668      19.295578      1.4830892     -1.2072355      18323.162    
    996000   0.9391491      0.0023323615   0.0011951802   20.946014      19.551377      1.3946364     -1.1213947      18878.671    
    997000   0.88955348     0.0023323615   0.00017543439  20.751002      19.430015      1.3209869     -1.0705317      20007.171    
    998000   0.96989397     0.0023323615  -0.0019577301   20.76038       19.320087      1.4402925     -1.0642775      20132.014    
    999000   0.85164521     0.0023323615  -0.0006109763   20.570425      19.305732      1.2646931     -1.1460826      20048.7      
   1000000   0.92094346     0.0023323615   0.0025253509   20.447469      19.079868      1.367601      -1.3676006      20067.257    
Loop time of 54.5393 on 1 procs for 1000000 steps with 100 atoms

Performance: 7920900.128 tau/day, 18335.417 timesteps/s
97.5% CPU use with 1 MPI tasks x 1 OpenMP threads

MPI task timing breakdown:
Section |  min time  |  avg time  |  max time  |%varavg| %total
---------------------------------------------------------------
Pair    | 44.187     | 44.187     | 44.187     |   0.0 | 81.02
Bond    | 1.4106     | 1.4106     | 1.4106     |   0.0 |  2.59
Neigh   | 3.8915     | 3.8915     | 3.8915     |   0.0 |  7.14
Comm    | 1.4411     | 1.4411     | 1.4411     |   0.0 |  2.64
Output  | 1.2672     | 1.2672     | 1.2672     |   0.0 |  2.32
Modify  | 1.9809     | 1.9809     | 1.9809     |   0.0 |  3.63
Other   |            | 0.3605     |            |       |  0.66

Nlocal:            100 ave         100 max         100 min
Histogram: 1 0 0 0 0 0 0 0 0 0
Nghost:            370 ave         370 max         370 min
Histogram: 1 0 0 0 0 0 0 0 0 0
Neighs:           4851 ave        4851 max        4851 min
Histogram: 1 0 0 0 0 0 0 0 0 0

Total # of neighbors = 4851
Ave neighs/atom = 48.51
Ave special neighs/atom = 1.98
Neighbor list builds = 97919
Dangerous builds = 80302

write_data      ${outputfile_assembled} nofix nocoeff
write_data      7_assembled.data nofix nocoeff
System init for write_data ...
Generated 0 of 6 mixed pair_coeff terms from geometric mixing rule

Total wall time: 0:00:56
