LAMMPS (23 Jun 2022 - Update 1)
OMP_NUM_THREADS environment is not set. Defaulting to 1 thread. (src/comm.cpp:98)
  using 1 OpenMP thread(s) per MPI task


variable        runtime equal 1000000
variable		subsample_rate equal 1000

variable		outputfile_created string '3_created.data'
variable		outputfile_relaxed string '5_relaxed.data'
variable		outputfile_selfasb string '6_a_self_assemble.lammpstrj'
variable		outputfile_trajlin string '6_b_trajlin.data'
variable		outputfile_assembled string '7_assembled.data'

units           lj
atom_style      full
dimension       3
boundary        p p p
timestep        0.005

read_data       ${outputfile_created}
read_data       3_created.data
Reading data file ...
  orthogonal box = (0 0 0) to (35 35 35)
  1 by 1 by 1 MPI processor grid
  reading atoms ...
  100 atoms
  reading velocities ...
  100 velocities
  scanning bonds ...
  1 = max bonds/atom
  reading bonds ...
  99 bonds
Finding 1-2 1-3 1-4 neighbors ...
  special bond factors lj:    0        0        0       
  special bond factors coul:  0        0        0       
     2 = max # of 1-2 neighbors
     2 = max # of 1-3 neighbors
     4 = max # of 1-4 neighbors
     6 = max # of special neighbors
  special bonds CPU = 0.000 seconds
  read_data CPU = 0.007 seconds

bond_style      fene
bond_coeff      * 30.0 1.5 1.0 1.0
special_bonds   fene
Finding 1-2 1-3 1-4 neighbors ...
  special bond factors lj:    0        1        1       
  special bond factors coul:  0        1        1       
     2 = max # of 1-2 neighbors
     6 = max # of special neighbors
  special bonds CPU = 0.000 seconds

variable        Temp equal 1.0
variable        velSeed equal 926458

velocity        all create ${Temp} ${velSeed}
velocity        all create 1 ${velSeed}
velocity        all create 1 926458

### Output
thermo_style    custom step temp density press etotal pe ke epair spcpu
thermo          1000

###########################################################################
# Soft relaxation (to remove overlaps of particles)
######################################################################

pair_style      soft 1.0
pair_coeff      * * 0.0
variable        prefactor equal ramp(0,300)
fix             rampSoft all adapt 1 pair soft a * * v_prefactor

minimize        0.0 1.0e-8 1000 100000
WARNING: Using 'neigh_modify every 1 delay 0 check yes' setting during minimization (src/min.cpp:187)
Generated 0 of 6 mixed pair_coeff terms from geometric mixing rule
Neighbor list info ...
  update every 1 steps, delay 0 steps, check yes
  max neighbors/atom: 2000, page size: 100000
  master list distance cutoff = 1.3
  ghost atom cutoff = 1.3
  binsize = 0.65, bins = 54 54 54
  1 neighbor lists, perpetual/occasional/extra = 1 0 0
  (1) pair soft, perpetual
      attributes: half, newton on
      pair build: half/bin/newton
      stencil: half/bin/3d
      bin: standard
WARNING: Communication cutoff 1.3 is shorter than a bond length based estimate of 1.7550000000000001. This may lead to errors. (src/comm.cpp:727)
Per MPI rank memory allocation (min/avg/max) = 8.346 | 8.346 | 8.346 Mbytes
   Step          Temp         Density         Press          TotEng         PotEng         KinEng         E_pair         S/CPU     
         0   1              0.0023323615  -0.0039617958   21.524174      20.039174      1.485          0              0            
       362   1              0.0023323615   0.0023090379   21.485548      20.000548      1.485          0              69334.341    
Loop time of 0.00522365 on 1 procs for 362 steps with 100 atoms

98.9% CPU use with 1 MPI tasks x 1 OpenMP threads

Minimization stats:
  Stopping criterion = force tolerance
  Energy initial, next-to-last, final = 
      20.0391741078675   20.0005480767337   20.0005480767337
  Force two-norm initial, final = 11.878422 7.9509778e-09
  Force max component initial, final = 6.6117807 1.3572772e-09
  Final line search alpha, max atom move = 1 1.3572772e-09
  Iterations, force evaluations = 362 738

MPI task timing breakdown:
Section |  min time  |  avg time  |  max time  |%varavg| %total
---------------------------------------------------------------
Pair    | 0.00021726 | 0.00021726 | 0.00021726 |   0.0 |  4.16
Bond    | 0.0023675  | 0.0023675  | 0.0023675  |   0.0 | 45.32
Neigh   | 0.0014559  | 0.0014559  | 0.0014559  |   0.0 | 27.87
Comm    | 0.0001868  | 0.0001868  | 0.0001868  |   0.0 |  3.58
Output  | 0          | 0          | 0          |   0.0 |  0.00
Modify  | 0          | 0          | 0          |   0.0 |  0.00
Other   |            | 0.0009961  |            |       | 19.07

Nlocal:            100 ave         100 max         100 min
Histogram: 1 0 0 0 0 0 0 0 0 0
Nghost:             20 ave          20 max          20 min
Histogram: 1 0 0 0 0 0 0 0 0 0
Neighs:              0 ave           0 max           0 min
Histogram: 1 0 0 0 0 0 0 0 0 0

Total # of neighbors = 0
Ave neighs/atom = 0
Ave special neighs/atom = 1.98
Neighbor list builds = 17
Dangerous builds = 0

fix             nvtSoft all nvt temp ${Temp} ${Temp} 0.5
fix             nvtSoft all nvt temp 1 ${Temp} 0.5
fix             nvtSoft all nvt temp 1 1 0.5
run             100000
Generated 0 of 6 mixed pair_coeff terms from geometric mixing rule
WARNING: Communication cutoff 1.3 is shorter than a bond length based estimate of 1.7550000000000001. This may lead to errors. (src/comm.cpp:727)
Per MPI rank memory allocation (min/avg/max) = 7.221 | 7.221 | 7.221 Mbytes
   Step          Temp         Density         Press          TotEng         PotEng         KinEng         E_pair         S/CPU     
       362   1              0.0023323615   0.0023090379   21.485548      20.000548      1.485          0              0            
      1000   0.90989032     0.0023323615  -0.0021940042   21.776974      20.425787      1.3511871      0.00036425437  78151.394    
      2000   0.86546688     0.0023323615   0.0034714157   21.677128      20.39191       1.2852183      0.0025814786   77170.134    
      3000   0.98199538     0.0023323615   0.0028144228   21.866132      20.407869      1.4582631      0.0011756043   74455.54     
      4000   1.004495       0.0023323615  -0.0014058211   21.945624      20.453949      1.4916751      0.011986179    74369.934    
      5000   1.1222705      0.0023323615   0.0044495116   21.986385      20.319813      1.6665718      0.0050317639   74764.673    
      6000   1.0538243      0.0023323615   0.0023957538   21.985713      20.420784      1.564929       0.012100514    75292.672    
      7000   1.0210598      0.0023323615  -0.00038820026  21.904665      20.388391      1.5162738      0              77095.985    
      8000   0.94819751     0.0023323615   0.0024943091   21.747889      20.339816      1.4080733      0              77025.123    
      9000   0.92364502     0.0023323615   0.0020053029   21.724166      20.352554      1.3716129      1.7780894e-05  75898.811    
     10000   0.86685188     0.0023323615   0.00078277366  21.644879      20.357604      1.287275       0.0098636418   76435.279    
     11000   1.0057103      0.0023323615   0.00010113276  21.8558        20.362321      1.4934798      0.020705341    76071.943    
     12000   0.97901664     0.0023323615  -0.0026996968   21.871206      20.417366      1.4538397      0.0052928539   75840.742    
     13000   0.97718436     0.0023323615  -6.1641422e-06  21.963706      20.512587      1.4511188      0.025022446    75572.515    
     14000   1.0530014      0.0023323615  -0.0009993112   21.947994      20.384287      1.5637071      0.0020860456   73880.616    
     15000   0.99094527     0.0023323615   0.0011068478   21.895146      20.423592      1.4715537      0.0015091113   75993.12     
     16000   0.91285091     0.0023323615  -0.00025424173  21.87524       20.519657      1.3555836      0.0047853639   75450.378    
     17000   0.82806978     0.0023323615  -0.00054698156  21.701984      20.472301      1.2296836      0              75642.221    
     18000   1.043278       0.0023323615  -6.6143919e-05  22.003299      20.454031      1.5492679      0.0034319132   76475.571    
     19000   1.0879249      0.0023323615  -0.0017804642   21.998985      20.383416      1.6155685      0.015376175    75170.189    
     20000   1.1144506      0.0023323615   0.0025198298   22.190904      20.535944      1.6549592      0              76214.778    
     21000   1.0427751      0.0023323615   0.0011345349   22.099492      20.550971      1.548521       0.00040047813  76375.745    
     22000   1.0586695      0.0023323615   0.0017882747   22.05673       20.484606      1.5721242      0              75075.199    
     23000   1.0058426      0.0023323615  -0.0055245362   21.954628      20.460951      1.4936763      0.0027619031   75074.81     
     24000   0.98273442     0.0023323615   0.0015147357   21.862067      20.402707      1.4593606      0              75316.416    
     25000   0.95835343     0.0023323615   0.0017808774   21.937761      20.514606      1.4231548      0.00020839942  75187.235    
     26000   0.93993778     0.0023323615  -0.0021777292   21.884849      20.489042      1.3958076      0.0088889834   75878.792    
     27000   0.9308188      0.0023323615  -0.00011239942  21.842252      20.459986      1.3822659      0.021612409    74841.981    
     28000   1.0149581      0.0023323615   0.0041996387   21.906846      20.399633      1.5072129      0.0064059022   75518.428    
     29000   0.92841138     0.0023323615  -2.5398808e-05  21.987185      20.608494      1.3786909      0.0046112484   75672.038    
     30000   1.021043       0.0023323615   0.001589158    22.097958      20.581709      1.5162489      0.016799508    72852.749    
     31000   1.0465985      0.0023323615  -0.0021744286   22.037917      20.483718      1.5541987      0.0057879149   75431.625    
     32000   0.98907108     0.0023323615  -0.0015558606   22.044089      20.575318      1.4687705      0.009448173    75315.451    
     33000   1.0918536      0.0023323615  -0.0025643847   22.039275      20.417873      1.6214025      0              74513.844    
     34000   0.99801543     0.0023323615   0.0016279766   21.932339      20.450286      1.4820529      0.017384617    76840.592    
     35000   1.0352271      0.0023323615  -0.0052971711   22.076004      20.538692      1.5373122      0.00010473809  75351.159    
     36000   1.1141579      0.0023323615  -0.00093279925  22.222491      20.567966      1.6545245      0.00033678641  76574.727    
     37000   1.0369415      0.0023323615   0.00013065175  22.217841      20.677983      1.5398581      0.013788831    75733.358    
     38000   1.0515596      0.0023323615   0.0021717558   22.070766      20.5092        1.561566       0.0067894678   76429.133    
     39000   1.0238495      0.0023323615   0.00026414509  22.040141      20.519725      1.5204165      0.00044464649  75590.721    
     40000   1.0749111      0.0023323615  -0.0026849368   22.039327      20.443084      1.596243       0.012651334    73879.028    
     41000   0.99070886     0.0023323615  -0.0030385564   22.03241       20.561207      1.4712027      0.00092855646  77194.785    
     42000   0.95315224     0.0023323615   0.0019788197   21.965263      20.549832      1.4154311      0.020233689    75194.031    
     43000   1.0644183      0.0023323615  -0.0011168725   22.287172      20.706511      1.5806611      0.039694129    69047.794    
     44000   1.0253747      0.0023323615  -0.006676522    22.066233      20.543552      1.5226814      0              73835.144    
     45000   0.94179556     0.0023323615  -0.0047206018   21.970644      20.572077      1.3985664      0.019869988    75095.704    
     46000   1.0083495      0.0023323615  -0.0017646918   21.972114      20.474715      1.497399       0.00026040605  74875.161    
     47000   0.98767959     0.0023323615  -0.00080218158  22.091674      20.62497       1.4667042      0.024266258    75211.144    
     48000   1.1473449      0.0023323615  -0.0025885687   22.080512      20.376705      1.7038072      0.00065962995  75365.044    
     49000   1.0679312      0.0023323615   0.0017688272   21.970482      20.384604      1.5858779      0.014142422    76456.235    
     50000   0.9581935      0.0023323615   0.0014398836   21.955202      20.532284      1.4229173      0.0055011948   75974.264    
     51000   1.0215759      0.0023323615  -0.00093292688  21.934681      20.41764       1.5170402      0              75377.331    
     52000   0.98079591     0.0023323615   0.0040701936   21.977374      20.520892      1.4564819      0.0020862422   76438.562    
     53000   1.0090927      0.0023323615   0.0013324753   22.095438      20.596935      1.4985027      0              75665.957    
     54000   0.97519627     0.0023323615   0.0013260734   22.070151      20.621984      1.4481665      0.026885444    76528.461    
     55000   1.1805087      0.0023323615  -0.001586238    22.424088      20.671033      1.7530554      0.024690954    75722.388    
     56000   0.98387121     0.0023323615   0.0037155145   22.104425      20.643376      1.4610487      0.01435493     75645.655    
     57000   1.0723812      0.0023323615  -0.0037916262   22.122726      20.53024       1.592486       0.013635549    76265.388    
     58000   1.0152349      0.0023323615   0.00021908047  22.082827      20.575203      1.5076238      0.00077375639  75893.5      
     59000   1.1424502      0.0023323615  -0.0052108657   22.30072       20.604182      1.6965385      0.013308184    76833.377    
     60000   1.0359703      0.0023323615  -0.00097887545  22.188218      20.649802      1.538416       0.00011346294  75073.959    
     61000   1.1646839      0.0023323615  -0.002085017    22.239945      20.51039       1.7295556      0.012918477    77251.127    
     62000   1.101836       0.0023323615   0.0010338878   22.171386      20.53516       1.6362265      0.001396566    76433.579    
     63000   0.96616435     0.0023323615   0.00097550571  21.903821      20.469067      1.4347541      0.013027663    77566.298    
     64000   1.0068907      0.0023323615  -0.0020278726   22.061652      20.566419      1.4952327      0.013750276    75727.388    
     65000   0.98723233     0.0023323615   0.0022441476   22.031073      20.565033      1.46604        0.0066686189   76767.245    
     66000   1.0273881      0.0023323615  -0.0003515278   22.183579      20.657908      1.5256713      0              74849.448    
     67000   0.96528212     0.0023323615  -0.00014822656  21.9396        20.506156      1.4334439      0.010365557    76700.121    
     68000   1.069702       0.0023323615   9.4754668e-05  22.081119      20.492611      1.5885075      0.00049153926  73606.997    
     69000   1.1229502      0.0023323615   0.0011504079   22.200329      20.532748      1.6675811      0.0068454249   76719.046    
     70000   1.0062775      0.0023323615  -0.00085311964  22.094021      20.599699      1.4943221      0.013222355    75256.278    
     71000   1.0906935      0.0023323615   0.00015260357  22.145362      20.525682      1.6196798      0.018338513    76151.748    
     72000   1.010401       0.0023323615  -6.0487182e-06  22.154105      20.653659      1.5004455      0.0013793953   74762.716    
     73000   1.1177599      0.0023323615  -0.0034084797   22.254435      20.594562      1.6598735      0.00011231735  77436.073    
     74000   0.9768019      0.0023323615   0.00016143893  22.07312       20.622569      1.4505508      0.0084515956   75189.898    
     75000   1.1360996      0.0023323615   0.002159116    22.161595      20.474487      1.6871079      0.0089909162   76221.941    
     76000   0.97379329     0.0023323615  -0.00068458621  21.988928      20.542845      1.446083       0              75444.105    
     77000   0.94876793     0.0023323615  -0.0016073976   21.923496      20.514575      1.4089204      0.017745108    75399.883    
     78000   0.83947996     0.0023323615  -0.00062768559  21.726727      20.480099      1.2466277      0.0054510099   75847.075    
     79000   1.0090614      0.0023323615  -0.00080262643  22.068192      20.569736      1.4984562      0.00023011166  76714.096    
     80000   1.1217643      0.0023323615  -0.0038177864   22.367902      20.702082      1.66582        0.032902439    75945.991    
     81000   1.0240158      0.0023323615   0.00023547123  22.031597      20.510933      1.5206635      0.0068767308   75542.834    
     82000   1.003236       0.0023323615  -0.0022802982   21.894199      20.404393      1.4898055      0.019136282    74431.882    
     83000   1.0554159      0.0023323615   0.004011718    22.104562      20.537269      1.5672927      0.0080869707   74316.169    
     84000   0.83527346     0.0023323615  -0.0034122221   21.874648      20.634267      1.2403811      0.0030083664   75660.284    
     85000   1.036002       0.0023323615   0.0013573923   21.962923      20.42446       1.5384629      0.015709144    76129.735    
     86000   0.9432002      0.0023323615  -0.0032183248   21.913588      20.512936      1.4006523      0.013730309    76210.003    
     87000   0.95566008     0.0023323615  -0.00049614223  21.91653       20.497375      1.4191552      0.0035862035   75351.727    
     88000   0.93373351     0.0023323615  -0.00097093893  21.870485      20.483891      1.3865943      0.0018212145   74923.67     
     89000   0.9684944      0.0023323615  -0.00047342045  21.973429      20.535215      1.4382142      0.00087524744  75340.634    
     90000   0.98293324     0.0023323615  -0.0032204602   22.050919      20.591263      1.4596559      0.015353933    76710.083    
     91000   1.0832827      0.0023323615   0.0048517083   22.11977       20.511095      1.6086749      0.0052867789   77616.786    
     92000   0.85899662     0.0023323615  -0.0013049519   21.765697      20.490087      1.27561        0.0024124001   76413.802    
     93000   0.96176266     0.0023323615  -4.4223672e-05  21.874222      20.446004      1.4282176      0.0045653365   77214.311    
     94000   0.96019503     0.0023323615   0.00024459347  21.944954      20.519064      1.4258896      3.8053462e-05  76765.595    
     95000   0.94702149     0.0023323615  -0.0033658915   21.86315       20.456823      1.4063269      0              77420.701    
     96000   0.91119348     0.0023323615  -0.0013197298   21.825018      20.471896      1.3531223      0.00043282989  75961.654    
     97000   1.0016687      0.0023323615  -0.0019514304   22.013024      20.525546      1.487478       0.0048369955   75524.999    
     98000   1.02143        0.0023323615  -0.0057874974   22.177965      20.661142      1.5168235      0              74446.987    
     99000   1.032786       0.0023323615   0.0018228259   21.975336      20.441649      1.5336871      7.1595851e-05  77547.135    
    100000   1.0594928      0.0023323615   0.0036169719   22.011024      20.437677      1.5733468      0.00032948157  75749.335    
    100362   1.1904942      0.0023323615  -0.00089755607  22.316856      20.548972      1.7678839      0.00063845255  75290.336    
Loop time of 1.32127 on 1 procs for 100000 steps with 100 atoms

Performance: 32695791.782 tau/day, 75684.703 timesteps/s
99.2% CPU use with 1 MPI tasks x 1 OpenMP threads

MPI task timing breakdown:
Section |  min time  |  avg time  |  max time  |%varavg| %total
---------------------------------------------------------------
Pair    | 0.049806   | 0.049806   | 0.049806   |   0.0 |  3.77
Bond    | 0.12621    | 0.12621    | 0.12621    |   0.0 |  9.55
Neigh   | 0.80497    | 0.80497    | 0.80497    |   0.0 | 60.92
Comm    | 0.056011   | 0.056011   | 0.056011   |   0.0 |  4.24
Output  | 0.0011963  | 0.0011963  | 0.0011963  |   0.0 |  0.09
Modify  | 0.24919    | 0.24919    | 0.24919    |   0.0 | 18.86
Other   |            | 0.03388    |            |       |  2.56

Nlocal:            100 ave         100 max         100 min
Histogram: 1 0 0 0 0 0 0 0 0 0
Nghost:             60 ave          60 max          60 min
Histogram: 1 0 0 0 0 0 0 0 0 0
Neighs:             36 ave          36 max          36 min
Histogram: 1 0 0 0 0 0 0 0 0 0

Total # of neighbors = 36
Ave neighs/atom = 0.36
Ave special neighs/atom = 1.98
Neighbor list builds = 9821
Dangerous builds = 8265
unfix           nvtSoft
unfix           rampSoft
reset_timestep  0

write_data      ${outputfile_relaxed}
write_data      5_relaxed.data
System init for write_data ...
Generated 0 of 6 mixed pair_coeff terms from geometric mixing rule
WARNING: Communication cutoff 1.3 is shorter than a bond length based estimate of 1.7550000000000001. This may lead to errors. (src/comm.cpp:727)
WARNING: Not all mixed pair coeffs generated from mixing. Use write_data with 'pair ij' option to store all pair coeffs. (src/write_data.cpp:309)

###########################################################################
# Full LJ with Coulomb
######################################################################

# Cutoffs and parameters:
# - Values: Marcel Verkade's Bachelor Thesis
# - Mapping to atom groups: Patrick Onck's paper
# - 1: aliphatic, 2: aromatic, 3: anion, 4: cation
# pair_style	lj/cut/coul/cut <lj_cut_global> <coul_cut_global>
# pair_coeff	<type_1>  <type_2>  <eps>  <sigma>  <r_cut_lj>  <r_cut_coul>

# Problem: Onck's model is much more complex, and Marcel has no sigma reported
# Using sigma=1 randomly

variable		glob_ljeps equal 1.0
variable		glob_ljsig 	equal 1.0
variable		glob_coulcut equal 10.0
variable		att_ljcut equal 2.50
variable		rep_ljcut equal 1.12

pair_style		lj/cut/coul/cut 						${att_ljcut} 	${glob_coulcut}
pair_style		lj/cut/coul/cut 						2.5 	${glob_coulcut}
pair_style		lj/cut/coul/cut 						2.5 	10
pair_coeff		1 1 	${glob_ljeps} 	${glob_ljsig}	${att_ljcut} 	${glob_coulcut}
pair_coeff		1 1 	1 	${glob_ljsig}	${att_ljcut} 	${glob_coulcut}
pair_coeff		1 1 	1 	1	${att_ljcut} 	${glob_coulcut}
pair_coeff		1 1 	1 	1	2.5 	${glob_coulcut}
pair_coeff		1 1 	1 	1	2.5 	10
pair_coeff		1 2 	${glob_ljeps} 	${glob_ljsig}	${att_ljcut} 	${glob_coulcut}
pair_coeff		1 2 	1 	${glob_ljsig}	${att_ljcut} 	${glob_coulcut}
pair_coeff		1 2 	1 	1	${att_ljcut} 	${glob_coulcut}
pair_coeff		1 2 	1 	1	2.5 	${glob_coulcut}
pair_coeff		1 2 	1 	1	2.5 	10
pair_coeff		1 3 	${glob_ljeps} 	${glob_ljsig}	${rep_ljcut} 	${glob_coulcut}
pair_coeff		1 3 	1 	${glob_ljsig}	${rep_ljcut} 	${glob_coulcut}
pair_coeff		1 3 	1 	1	${rep_ljcut} 	${glob_coulcut}
pair_coeff		1 3 	1 	1	1.12 	${glob_coulcut}
pair_coeff		1 3 	1 	1	1.12 	10
pair_coeff		1 4 	${glob_ljeps} 	${glob_ljsig}	${rep_ljcut} 	${glob_coulcut}
pair_coeff		1 4 	1 	${glob_ljsig}	${rep_ljcut} 	${glob_coulcut}
pair_coeff		1 4 	1 	1	${rep_ljcut} 	${glob_coulcut}
pair_coeff		1 4 	1 	1	1.12 	${glob_coulcut}
pair_coeff		1 4 	1 	1	1.12 	10
pair_coeff		2 2 	${glob_ljeps} 	${glob_ljsig}	${att_ljcut} 	${glob_coulcut}
pair_coeff		2 2 	1 	${glob_ljsig}	${att_ljcut} 	${glob_coulcut}
pair_coeff		2 2 	1 	1	${att_ljcut} 	${glob_coulcut}
pair_coeff		2 2 	1 	1	2.5 	${glob_coulcut}
pair_coeff		2 2 	1 	1	2.5 	10
pair_coeff		2 3 	${glob_ljeps} 	${glob_ljsig}	${rep_ljcut} 	${glob_coulcut}
pair_coeff		2 3 	1 	${glob_ljsig}	${rep_ljcut} 	${glob_coulcut}
pair_coeff		2 3 	1 	1	${rep_ljcut} 	${glob_coulcut}
pair_coeff		2 3 	1 	1	1.12 	${glob_coulcut}
pair_coeff		2 3 	1 	1	1.12 	10
pair_coeff		2 4 	${glob_ljeps} 	${glob_ljsig}	${att_ljcut} 	${glob_coulcut}
pair_coeff		2 4 	1 	${glob_ljsig}	${att_ljcut} 	${glob_coulcut}
pair_coeff		2 4 	1 	1	${att_ljcut} 	${glob_coulcut}
pair_coeff		2 4 	1 	1	2.5 	${glob_coulcut}
pair_coeff		2 4 	1 	1	2.5 	10
pair_coeff		3 3 	${glob_ljeps} 	${glob_ljsig}	${rep_ljcut} 	${glob_coulcut}
pair_coeff		3 3 	1 	${glob_ljsig}	${rep_ljcut} 	${glob_coulcut}
pair_coeff		3 3 	1 	1	${rep_ljcut} 	${glob_coulcut}
pair_coeff		3 3 	1 	1	1.12 	${glob_coulcut}
pair_coeff		3 3 	1 	1	1.12 	10
pair_coeff		3 4 	${glob_ljeps} 	${glob_ljsig}	${att_ljcut} 	${glob_coulcut}
pair_coeff		3 4 	1 	${glob_ljsig}	${att_ljcut} 	${glob_coulcut}
pair_coeff		3 4 	1 	1	${att_ljcut} 	${glob_coulcut}
pair_coeff		3 4 	1 	1	2.5 	${glob_coulcut}
pair_coeff		3 4 	1 	1	2.5 	10
pair_coeff		4 4 	${glob_ljeps} 	${glob_ljsig}	${rep_ljcut} 	${glob_coulcut}
pair_coeff		4 4 	1 	${glob_ljsig}	${rep_ljcut} 	${glob_coulcut}
pair_coeff		4 4 	1 	1	${rep_ljcut} 	${glob_coulcut}
pair_coeff		4 4 	1 	1	1.12 	${glob_coulcut}
pair_coeff		4 4 	1 	1	1.12 	10


fix             noDriftRot 	all momentum 10 linear 1 1 1 angular
fix             nvt1 		all nvt temp ${Temp} ${Temp} 0.5
fix             nvt1 		all nvt temp 1 ${Temp} 0.5
fix             nvt1 		all nvt temp 1 1 0.5

# dump          assemble 	all custom 1000 				${outputfile_selfasb} id type xu yu zu vx vy vz
dump            lindump 	all custom ${subsample_rate} 	${outputfile_trajlin} id type xu yu zu vx vy vz
dump            lindump 	all custom 1000 	${outputfile_trajlin} id type xu yu zu vx vy vz
dump            lindump 	all custom 1000 	6_b_trajlin.data id type xu yu zu vx vy vz

run             ${runtime}
run             1000000
Generated 0 of 6 mixed pair_coeff terms from geometric mixing rule
Neighbor list info ...
  update every 1 steps, delay 10 steps, check yes
  max neighbors/atom: 2000, page size: 100000
  master list distance cutoff = 10.3
  ghost atom cutoff = 10.3
  binsize = 5.15, bins = 7 7 7
  1 neighbor lists, perpetual/occasional/extra = 1 0 0
  (1) pair lj/cut/coul/cut, perpetual
      attributes: half, newton on
      pair build: half/bin/newton
      stencil: half/bin/3d
      bin: standard
Per MPI rank memory allocation (min/avg/max) = 7.712 | 7.712 | 7.712 Mbytes
   Step          Temp         Density         Press          TotEng         PotEng         KinEng         E_pair         S/CPU     
         0   1.1904942      0.0023323615  -0.001773209    21.857639      20.089755      1.7678839     -0.45857892     0            
      1000   0.96338927     0.0023323615  -0.0016784776   21.077699      19.647066      1.4306331     -0.83945577     32970.583    
      2000   1.0258137      0.0023323615   0.0005428598   20.888686      19.365352      1.5233333     -1.0490035      29750.749    
      3000   0.95353113     0.0023323615   0.00063377365  20.091788      18.675794      1.4159937     -1.723991       24583.643    
      4000   1.0362494      0.0023323615   0.0037606755   20.151779      18.612949      1.5388304     -1.8896723      19334.183    
      5000   1.097454       0.0023323615  -0.0017718854   20.028103      18.398384      1.6297191     -2.1083018      17923.914    
      6000   0.95654586     0.0023323615  -0.0025550875   19.919904      18.499433      1.4204706     -1.9343258      17825.648    
      7000   0.84443482     0.0023323615   0.0032398058   19.845967      18.591981      1.2539857     -1.9260916      17933.478    
      8000   0.97921168     0.0023323615  -0.0006416931   20.399935      18.945805      1.4541293     -1.5683562      17967.588    
      9000   1.1532373      0.0023323615  -0.0017571537   19.903061      18.190504      1.7125574     -2.1926212      17879.999    
     10000   1.045822       0.0023323615   0.00051658428  20.042851      18.489805      1.5530456     -2.1217169      17717.424    
     11000   1.0975954      0.0023323615  -0.0029299579   20.169502      18.539573      1.6299292     -2.0203073      17779.578    
     12000   1.0256198      0.0023323615  -0.0022787663   20.001747      18.478702      1.5230454     -2.0114264      18186.209    
     13000   0.92424691     0.0023323615   0.0071212419   20.086407      18.7139        1.3725067     -1.8221442      18114.998    
     14000   0.98810117     0.0023323615   0.0056726007   19.637869      18.170539      1.4673302     -2.361561       18168.617    
     15000   0.97468205     0.0023323615  -0.0034293844   20.028129      18.580726      1.4474029     -1.9318468      18099.461    
     16000   1.0712162      0.0023323615   0.00092266313  20.145281      18.554525      1.590756      -2.0143555      18122.237    
     17000   0.96366901     0.0023323615   0.00070274196  19.588922      18.157874      1.4310485     -2.4811788      18060.828    
     18000   1.0680028      0.0023323615  -6.6511206e-05  20.198534      18.61255       1.5859841     -1.9562517      18156.736    
     19000   1.0418246      0.0023323615   0.0014056936   20.157267      18.610157      1.5471095     -1.9413395      18227.347    
     20000   0.86904911     0.0023323615  -0.0060740537   19.534642      18.244104      1.2905379     -2.2820997      18107.673    
     21000   1.1834237      0.0023323615  -0.001237301    20.381704      18.624319      1.7573842     -1.9393242      18067.331    
     22000   0.97015906     0.0023323615  -0.00074858353  19.6931        18.252414      1.4406862     -2.2137968      18122.138    
     23000   1.06174        0.0023323615   0.0056124287   19.682609      18.105926      1.5766839     -2.3884714      18121.836    
     24000   0.84683186     0.0023323615  -0.0039549924   19.882781      18.625236      1.2575453     -1.9393226      18063.884    
     25000   1.0991999      0.0023323615  -0.0016575039   20.000743      18.368431      1.6323119     -2.2084702      18223.57     
     26000   0.8930893      0.0023323615  -0.0039493347   19.77947       18.453232      1.3262376     -2.0002401      18184.582    
     27000   1.0377614      0.0023323615   0.0001259462   20.04386       18.502784      1.5410756     -1.9581409      18214.112    
     28000   0.98859109     0.0023323615   0.0017179712   19.603716      18.135659      1.4680578     -2.3378502      18212.241    
     29000   0.92718612     0.0023323615  -0.0024900125   20.041843      18.664971      1.3768714     -1.9412357      18203.19     
     30000   1.090885       0.0023323615  -0.001238177    19.770281      18.150317      1.6199643     -2.3892542      18105.528    
     31000   1.1024726      0.0023323615  -0.0011945735   20.119443      18.482271      1.6371718     -2.1527373      18085.808    
     32000   0.97777018     0.0023323615   0.0013917012   19.64637       18.194381      1.4519887     -2.3235082      18010.215    
     33000   0.95680128     0.0023323615  -0.0029641149   19.806794      18.385944      1.4208499     -2.046815       18066.098    
     34000   0.99278059     0.0023323615  -1.6170446e-05  20.246829      18.77255       1.4742792     -1.7297676      18113.667    
     35000   0.94044297     0.0023323615   0.00049676583  19.721214      18.324657      1.3965578     -2.2050152      18077.534    
     36000   1.0730901      0.0023323615   0.0032883137   19.878307      18.284769      1.5935388     -2.2079936      18109.733    
     37000   0.87871653     0.0023323615   0.0014701897   19.43819       18.133296      1.3048941     -2.3747607      18182.707    
     38000   0.99049202     0.0023323615  -0.0023448498   19.833088      18.362207      1.4708806     -2.1206477      18137.998    
     39000   0.87892439     0.0023323615   0.00046086934  19.64039       18.335187      1.3052027     -2.2534893      18124.679    
     40000   0.96618016     0.0023323615   0.00019009107  19.599602      18.164825      1.4347775     -2.1539376      18040.566    
     41000   0.99573868     0.0023323615   0.0019221627   19.800057      18.321385      1.4786719     -2.095526       18045.188    
     42000   1.0938062      0.0023323615   0.010036921    20.42436       18.800058      1.6243022     -1.8224959      18194.599    
     43000   1.0058995      0.0023323615   0.0027684265   19.871689      18.377928      1.4937608     -2.0988174      18259.331    
     44000   0.98904187     0.0023323615  -0.0049209486   19.842983      18.374255      1.4687272     -2.0553243      18322.251    
     45000   1.05947        0.0023323615   0.00035401459  20.197938      18.624625      1.5733129     -1.9839168      18282.545    
     46000   0.91561067     0.0023323615   0.00074685091  19.989835      18.630154      1.3596818     -2.071229       18243.808    
     47000   0.94612707     0.0023323615   0.0041116201   19.909261      18.504263      1.4049987     -2.1450419      18122.767    
     48000   1.0294029      0.0023323615   0.0023015755   19.872474      18.343811      1.5286633     -2.2615606      18129.818    
     49000   1.0242441      0.0023323615   0.0025396011   19.846957      18.325954      1.5210025     -2.1960617      18072.107    
     50000   0.96648442     0.0023323615  -0.0010084611   19.605878      18.170648      1.4352294     -2.429215       17837.068    
     51000   1.0345603      0.0023323615  -0.0015424865   19.870469      18.334147      1.536322      -2.2264823      17763.279    
     52000   0.99898394     0.0023323615  -0.00093272369  20.115175      18.631683      1.4834912     -1.8829409      18203.628    
     53000   1.0095284      0.0023323615   0.00063445097  19.704903      18.205753      1.4991497     -2.308738       18230.563    
     54000   1.112241       0.0023323615  -0.0027540957   19.948996      18.297319      1.6516779     -2.2363066      18211.716    
     55000   0.92331701     0.0023323615   0.0025469966   19.770132      18.399006      1.3711258     -2.0636856      18255.758    
     56000   1.0203418      0.0023323615   0.0020276509   19.929429      18.414222      1.5152076     -2.0390641      18306.745    
     57000   0.86115176     0.0023323615  -0.0031243405   19.745604      18.466793      1.2788104     -2.0144093      18089.545    
     58000   1.0783072      0.0023323615   0.0011530885   19.942267      18.340981      1.6012862     -2.1445538      18278.162    
     59000   0.92929436     0.0023323615  -0.00097000288  19.724612      18.34461       1.3800021     -2.1083728      18196.496    
     60000   1.0578479      0.0023323615  -0.0011759242   19.993236      18.422331      1.5709042     -2.052704       18148.225    
     61000   0.99317501     0.0023323615   0.00082012468  20.065607      18.590742      1.4748649     -1.9836695      18177.677    
     62000   1.1122072      0.0023323615  -0.0020920274   20.020053      18.368425      1.6516277     -2.1358516      18194.141    
     63000   0.95841248     0.0023323615  -0.0020224598   20.111271      18.688028      1.4232425     -1.7883984      18137.22     
     64000   1.0053001      0.0023323615  -0.00068775993  19.984202      18.491332      1.4928707     -2.0980032      18065.81     
     65000   1.0027464      0.0023323615  -0.00011839017  19.764606      18.275527      1.4890784     -2.1999986      18181.756    
     66000   1.0406413      0.0023323615  -0.0027059055   20.229696      18.684343      1.5453524     -1.9480125      18233.247    
     67000   1.0572108      0.0023323615  -0.0020199919   20.11631       18.546352      1.569958      -1.9265201      18136.93     
     68000   0.89416833     0.0023323615   0.0011646929   19.778481      18.450641      1.32784       -1.9757254      18217.094    
     69000   1.0184067      0.0023323615   0.00098042316  20.18201       18.669677      1.5123339     -1.9783884      18206.235    
     70000   0.95785449     0.0023323615   0.0016523293   19.944863      18.522449      1.4224139     -2.0405975      18138.001    
     71000   1.2640989      0.0023323615  -0.0016906711   20.651807      18.77462       1.8771868     -1.8278234      18003.003    
     72000   1.009575       0.0023323615   0.0018174199   20.088106      18.588887      1.4992189     -1.9525127      18079.364    
     73000   0.98007932     0.0023323615   0.0012004312   20.090277      18.634859      1.4554178     -1.8829759      18220.506    
     74000   1.0147749      0.0023323615   0.0028873671   20.020053      18.513112      1.5069407     -2.045186       18059.377    
     75000   0.99964923     0.0023323615  -0.001919405    20.015027      18.530548      1.4844791     -1.9555504      18118.276    
     76000   1.0760871      0.0023323615  -0.0011476218   20.018416      18.420427      1.5979894     -2.1597626      18114.019    
     77000   0.92686651     0.0023323615   0.00025298643  19.739155      18.362758      1.3763968     -2.1112496      18235.459    
     78000   0.97230854     0.0023323615  -0.00016702303  19.738024      18.294146      1.4438782     -2.175144       18161.226    
     79000   1.1115716      0.0023323615  -0.0031552088   19.956937      18.306253      1.6506838     -2.2144184      18028.887    
     80000   0.84429862     0.0023323615  -0.0045963806   19.918404      18.664621      1.2537835     -1.8543152      18098.233    
     81000   1.2042515      0.0023323615   0.0049046126   20.289541      18.501228      1.7883135     -2.0654878      18146.519    
     82000   1.0182174      0.0023323615   0.00068774048  19.964803      18.45275       1.5120528     -2.0771494      18134.736    
     83000   1.0084319      0.0023323615  -2.1164543e-05  19.85324       18.355718      1.4975214     -2.0582503      18127.971    
     84000   1.0026242      0.0023323615  -0.00035773713  20.086112      18.597215      1.488897      -1.8906692      18200.17     
     85000   0.92298139     0.0023323615  -0.00031820432  19.556258      18.18563       1.3706274     -2.341423       18233.797    
     86000   0.92438511     0.0023323615  -0.0014728848   19.74465       18.371938      1.3727119     -2.1852111      18206.583    
     87000   1.1721261      0.0023323615  -0.00072353871  20.5004        18.759792      1.7406073     -1.7238196      18237.728    
     88000   0.95285909     0.0023323615  -0.0035048315   19.93004       18.515044      1.4149957     -2.0026495      18314.841    
     89000   0.9696573      0.0023323615  -0.0018521355   19.750321      18.31038       1.4399411     -2.1620208      18136.054    
     90000   1.1263088      0.0023323615  -0.0022202299   19.842163      18.169595      1.6725686     -2.3123215      18155.596    
     91000   0.85262938     0.0023323615  -0.0029104912   19.582105      18.31595       1.2661546     -2.1857212      18163.357    
     92000   0.93653604     0.0023323615   0.0022040015   20.081042      18.690286      1.390756      -1.960169       18200.412    
     93000   1.0691091      0.0023323615  -0.00030938852  20.098838      18.511211      1.587627      -2.0250053      18251.411    
     94000   1.0701208      0.0023323615   0.0016243678   19.674511      18.085382      1.5891294     -2.3601571      18279.274    
     95000   0.92221446     0.0023323615   0.0012040258   19.734319      18.364831      1.3694885     -2.1647784      18388.318    
     96000   0.93565228     0.0023323615  -0.00049033105  19.83975       18.450306      1.3894436     -2.1243412      18330.757    
     97000   1.0291346      0.0023323615   0.0039979677   19.817367      18.289102      1.5282649     -2.2415663      18198.401    
     98000   0.95419689     0.0023323615  -0.0044142779   19.647805      18.230823      1.4169824     -2.2519931      18191.717    
     99000   1.161984       0.0023323615  -0.0023299833   20.238159      18.512613      1.7255462     -2.0319651      18143.956    
    100000   1.0488924      0.0023323615   0.0043636129   19.847965      18.290359      1.5576051     -2.2041444      18200.04     
    101000   1.1254549      0.0023323615   0.0046827631   20.114453      18.443152      1.6713005     -2.1174729      18248.204    
    102000   1.0059049      0.0023323615   0.0012496684   20.073782      18.580014      1.4937687     -1.8857253      18129.087    
    103000   0.85380187     0.0023323615  -0.00014020949  19.718967      18.451071      1.2678958     -1.9272411      17923.096    
    104000   1.0771287      0.0023323615   0.0007800686   20.089082      18.489546      1.5995361     -2.0831679      17823.681    
    105000   0.84696231     0.0023323615  -0.0015596697   19.733295      18.475556      1.257739      -2.0678982      18165.853    
    106000   0.97194217     0.0023323615   0.0016163511   19.957716      18.514382      1.4433341     -1.9780977      18253.247    
    107000   1.0042364      0.0023323615   0.0032351373   19.759734      18.268443      1.491291      -2.1428026      18186.934    
    108000   1.0957041      0.0023323615  -0.00027523054  20.034874      18.407754      1.6271207     -2.1065119      18136.848    
    109000   0.88740124     0.0023323615   0.0015835808   19.560699      18.242908      1.3177908     -2.2399062      18207.028    
    110000   1.012288       0.0023323615  -0.00068147798  20.032077      18.528829      1.5032476     -2.1410886      18301.848    
    111000   0.84744983     0.0023323615  -0.00050895829  19.549421      18.290958      1.258463      -2.2584181      18279.666    
    112000   1.3199475      0.0023323615   0.0044906684   20.224252      18.26413       1.9601221     -2.2450197      18187.478    
    113000   0.9709515      0.0023323615   0.0014871093   19.855905      18.414042      1.441863      -2.0627568      18245.672    
    114000   0.9223233      0.0023323615   0.0038012911   19.922969      18.553319      1.3696501     -2.0062155      18235.975    
    115000   0.949756       0.0023323615   0.00064176826  19.75073       18.340342      1.4103877     -2.1194804      18254.946    
    116000   0.97884953     0.0023323615  -0.0019574839   19.886082      18.43249       1.4535916     -2.1297713      18008.333    
    117000   0.96347738     0.0023323615   0.00061695502  19.86506       18.434296      1.4307639     -2.1510932      18052.322    
    118000   1.0115564      0.0023323615   0.0044910726   19.826622      18.32446       1.5021613     -2.2709556      18237.575    
    119000   0.95474084     0.0023323615  -0.003994932    19.963689      18.545899      1.4177902     -1.9389376      18369.547    
    120000   0.88048684     0.0023323615   0.002653183    19.772342      18.464819      1.307523      -2.0978136      18433.223    
    121000   0.86457407     0.0023323615  -0.0043073405   19.84026       18.556368      1.2838925     -1.9552349      18307.4      
    122000   1.0156434      0.0023323615   0.0056955796   20.130639      18.622408      1.5082305     -1.8543481      18448.769    
    123000   1.1007936      0.0023323615  -0.0015425189   19.920298      18.285619      1.6346785     -2.3216637      18453.62     
    124000   1.0609601      0.0023323615  -0.0030791194   19.973825      18.3983        1.5755257     -2.1237855      18336.256    
    125000   0.97037573     0.0023323615  -0.0012192376   19.800092      18.359084      1.441008      -2.1438605      18379.698    
    126000   0.96037899     0.0023323615  -0.0010455538   19.457864      18.031701      1.4261628     -2.4105582      18398.077    
    127000   0.89851143     0.0023323615  -0.0014710656   19.916346      18.582056      1.3342895     -2.0480931      18373.54     
    128000   0.95541507     0.0023323615   0.00054798744  19.763569      18.344778      1.4187914     -2.1353509      18367.366    
    129000   0.92540918     0.0023323615  -0.00084600942  20.013317      18.639085      1.3742326     -1.8047398      18367.68     
    130000   0.87026074     0.0023323615   0.0074039329   19.81432       18.521983      1.2923372     -2.0651486      18384.705    
    131000   0.9380754      0.0023323615  -0.0013442559   19.661379      18.268337      1.393042      -2.140205       18419.935    
    132000   1.0584811      0.0023323615   0.0053086177   19.745892      18.174047      1.5718445     -2.3158146      18311.497    
    133000   0.93244489     0.0023323615   0.0012025651   20.073729      18.689049      1.3846807     -1.8524571      18322.338    
    134000   0.97398925     0.0023323615   0.0002077142   20.012399      18.566025      1.446374      -2.0496523      18151.578    
    135000   0.85283691     0.0023323615  -0.00207728     19.824703      18.55824       1.2664628     -2.0518682      18268.04     
    136000   1.0062299      0.0023323615  -0.00062938963  20.055861      18.561609      1.4942514     -1.8996293      18268.163    
    137000   1.0523774      0.0023323615   0.0042259349   19.976891      18.41411       1.5627804     -2.1467267      18239.378    
    138000   1.1491446      0.0023323615   0.0019731271   19.891974      18.185494      1.7064798     -2.2408484      18203.598    
    139000   0.99035834     0.0023323615  -0.00032049898  19.867296      18.396614      1.4706821     -2.1956277      18193.094    
    140000   1.1720675      0.0023323615   0.004591712    20.146086      18.405565      1.7405203     -2.0806557      18270.39     
    141000   1.0814628      0.0023323615   0.0034450382   19.938858      18.332886      1.6059722     -2.0903841      18417.648    
    142000   1.0030341      0.0023323615  -0.0023391258   19.852012      18.362506      1.4895056     -2.1599027      18277.416    
    143000   1.0520419      0.0023323615  -0.00077585044  19.973395      18.411113      1.5622823     -2.0540825      18231.112    
    144000   1.0059795      0.0023323615   0.0014676013   19.882404      18.388524      1.4938796     -2.0974598      18178.061    
    145000   0.8444185      0.0023323615   0.0061645646   19.540113      18.286152      1.2539615     -2.2485278      18364.014    
    146000   1.1062348      0.0023323615  -0.0036852225   19.913144      18.270385      1.6427586     -2.2129932      18391.371    
    147000   1.1050545      0.0023323615   0.0012766361   20.053503      18.412497      1.641006      -2.0285149      18364.487    
    148000   0.98790218     0.0023323615   0.0028339689   19.950653      18.483619      1.4670347     -2.0591246      18412.025    
    149000   1.0859894      0.0023323615   0.0027215057   19.848327      18.235633      1.6126942     -2.2208376      18251.037    
    150000   1.051522       0.0023323615   0.00015385451  20.126759      18.565249      1.5615101     -1.8252144      18131.642    
    151000   1.0536882      0.0023323615  -0.0012316768   19.711249      18.146522      1.564727      -2.2972145      17854.033    
    152000   0.98687034     0.0023323615   0.00088840499  19.708124      18.242621      1.4655025     -2.1875489      17949.293    
    153000   1.0925512      0.0023323615  -0.0032261455   20.106405      18.483967      1.6224385     -2.1029349      17833.973    
    154000   1.0206119      0.0023323615   0.00066574577  20.038272      18.522663      1.5156086     -1.9390836      17924.3      
    155000   0.90869812     0.0023323615   0.00012240739  19.808827      18.459411      1.3494167     -2.1418604      17935.025    
    156000   0.96706827     0.0023323615   0.0028074354   20.105093      18.668997      1.4360964     -1.806889       17765.167    
    157000   1.009817       0.0023323615  -0.00048403515  20.078743      18.579164      1.4995783     -1.9592321      17572.04     
    158000   1.0572924      0.0023323615  -0.00019536243  19.836392      18.266312      1.5700792     -2.1868643      17620.958    
    159000   0.97989924     0.0023323615  -0.0037966487   19.933138      18.477987      1.4551504     -2.1675652      17530.417    
    160000   1.0551831      0.0023323615   0.0001191513   19.965478      18.398531      1.566947      -2.1762624      17723.641    
    161000   1.0563653      0.0023323615   0.00088238751  20.470567      18.901865      1.5687024     -1.5921744      17806.329    
    162000   0.96183525     0.0023323615  -0.0040222108   20.103738      18.675413      1.4283253     -1.8339258      17889.142    
    163000   0.98179753     0.0023323615   7.7784595e-05  19.907452      18.449483      1.4579693     -1.9981053      17878.962    
    164000   0.88455506     0.0023323615   0.003753034    19.670429      18.356865      1.3135643     -2.1724816      18054.954    
    165000   0.96517559     0.0023323615  -0.00060698916  20.035914      18.602629      1.4332858     -1.9345232      17986.059    
    166000   0.9576599      0.0023323615  -0.0010849654   19.646655      18.22453       1.4221249     -2.2175174      17893.619    
    167000   1.0339008      0.0023323615   0.0011440969   19.969216      18.433873      1.5353427     -2.0747726      17872.181    
    168000   0.86630372     0.0023323615  -0.0030878264   19.429449      18.142988      1.286461      -2.3096726      17845.168    
    169000   1.0617972      0.0023323615  -0.00089755351  19.967357      18.390588      1.5767688     -2.1448929      17900.127    
    170000   1.0131871      0.0023323615  -0.002875008    20.19864       18.694058      1.5045828     -1.9832535      17934.522    
    171000   0.99782547     0.0023323615  -0.00056171781  19.788786      18.307015      1.4817708     -2.0638832      17956.155    
    172000   1.2077066      0.0023323615   0.0038761819   20.415387      18.621943      1.7934443     -1.9680149      17819.312    
    173000   1.0456608      0.0023323615  -0.0011031449   20.135508      18.582701      1.5528062     -1.9308751      17980.159    
    174000   1.1106935      0.0023323615  -0.00026754686  19.890198      18.240818      1.6493798     -2.3018493      18023.962    
    175000   0.87799271     0.0023323615   0.0012070503   19.665604      18.361784      1.3038192     -2.0559181      18019.787    
    176000   0.88737266     0.0023323615   0.0028497945   20.046592      18.728843      1.3177484     -1.8158946      18024.368    
    177000   0.98802663     0.0023323615  -0.00048774297  19.625208      18.157989      1.4672195     -2.3087349      17938.319    
    178000   0.96296249     0.0023323615  -0.0051287238   20.010815      18.580815      1.4299993     -2.0728243      17740.481    
    179000   0.98881752     0.0023323615   0.0030644188   19.668552      18.200158      1.468394      -2.2213405      17767.874    
    180000   0.91624939     0.0023323615  -0.0026533724   19.957389      18.596759      1.3606303     -2.027673       17730.246    
    181000   0.98794416     0.0023323615   0.00097430088  19.987587      18.52049       1.4670971     -1.9700543      17826.641    
    182000   1.0854126      0.0023323615  -0.00038474468  20.246846      18.635008      1.6118378     -1.9750009      17701.663    
    183000   0.97242093     0.0023323615  -0.0013344445   19.777619      18.333574      1.4440451     -2.1663513      17578.307    
    184000   0.96794014     0.0023323615  -3.0584457e-05  19.861432      18.424041      1.4373911     -2.0748112      17524.966    
    185000   1.0457873      0.0023323615   0.00088598503  20.15523       18.602236      1.5529942     -1.9903428      18028.904    
    186000   1.0181977      0.0023323615   0.0044588938   19.803665      18.291642      1.5120235     -2.0683678      18220.908    
    187000   0.88863263     0.0023323615  -0.00090390382  19.777629      18.45801       1.3196195     -1.9771167      17916.436    
    188000   1.0053657      0.0023323615  -0.0030437824   19.881843      18.388875      1.492968      -2.144406       17746.985    
    189000   0.9552554      0.0023323615   0.0036343649   19.545953      18.127399      1.4185543     -2.3383971      17479.281    
    190000   0.98771795     0.0023323615  -0.00043930608  19.681349      18.214587      1.4667612     -2.3214016      17443.165    
    191000   1.0081296      0.0023323615   0.00030858602  19.739173      18.242101      1.4970725     -2.2171369      17477.092    
    192000   0.85251239     0.0023323615   0.00074794545  19.676692      18.410711      1.2659809     -2.1454817      17705.5      
    193000   0.95616545     0.0023323615   0.00026538395  19.973912      18.554007      1.4199057     -2.0282231      17843.87     
    194000   1.0799552      0.0023323615  -0.00079051962  19.98418       18.380447      1.6037335     -2.1913628      17944.614    
    195000   0.97967365     0.0023323615   0.0018097646   19.642949      18.188134      1.4548154     -2.3193442      17975.842    
    196000   0.95966793     0.0023323615  -0.0051572541   19.947514      18.522407      1.4251069     -2.0354886      17986.853    
    197000   1.0817806      0.0023323615  -0.0013876989   19.806297      18.199852      1.6064442     -2.3633867      17877.393    
    198000   0.86307077     0.0023323615  -0.0012383602   19.905301      18.623641      1.2816601     -1.8966174      17933.198    
    199000   1.1122232      0.0023323615  -7.2362076e-05  19.827655      18.176004      1.6516514     -2.2316799      18068.381    
    200000   0.98563348     0.0023323615   0.002143423    20.209231      18.745565      1.4636657     -1.8476581      17931.883    
    201000   1.1253687      0.0023323615  -0.0025248255   20.52921       18.858037      1.6711726     -1.7419615      18004.195    
    202000   1.0194813      0.0023323615  -0.0014217253   20.000918      18.486988      1.5139297     -1.9720114      18084.481    
    203000   1.0331227      0.0023323615   0.0045489787   19.709925      18.175738      1.5341873     -2.2354965      17890.871    
    204000   0.88999693     0.0023323615   0.001039168    19.811647      18.490002      1.3216454     -2.0532053      17864.143    
    205000   1.0712399      0.0023323615  -0.0048939802   19.885588      18.294797      1.5907912     -2.2766586      17884.315    
    206000   1.1851742      0.0023323615   0.0005367278   19.969659      18.209676      1.7599836     -2.1725306      17929.377    
    207000   0.98282152     0.0023323615  -0.00016988712  19.748576      18.289086      1.45949       -2.0791784      17926.807    
    208000   0.89171275     0.0023323615  -0.00089025636  19.793307      18.469114      1.3241934     -2.1034643      17759.332    
    209000   1.0791903      0.0023323615  -0.0024508521   20.325552      18.722954      1.6025976     -1.935334       17622.912    
    210000   0.95993099     0.0023323615   0.0033754133   19.929067      18.503569      1.4254975     -2.1221387      17491.643    
    211000   0.88639854     0.0023323615  -0.0020921144   20.012893      18.696591      1.3163018     -1.9117978      17674.703    
    212000   1.0113687      0.0023323615   0.0026102638   19.797801      18.295918      1.5018825     -2.2351154      17524.944    
    213000   0.95053654     0.0023323615  -9.9495071e-05  20.205135      18.793589      1.4115468     -1.884662       17347.086    
    214000   1.0021282      0.0023323615  -0.0043228163   20.01095       18.52279       1.4881603     -2.0049575      17669.155    
    215000   1.0240649      0.0023323615   0.0010154077   19.665996      18.14526       1.5207363     -2.3094762      17630.277    
    216000   0.99913039     0.0023323615   0.0076793811   20.362146      18.878437      1.4837086     -1.8660257      17611.761    
    217000   1.0034508      0.0023323615  -0.000100265    19.735539      18.245415      1.4901244     -2.205453       17633.258    
    218000   0.99499413     0.0023323615  -0.00025640858  19.820285      18.342719      1.4775663     -2.2802628      17524.35     
    219000   1.0559236      0.0023323615   0.00075339364  20.099307      18.531261      1.5680466     -2.0847052      17676.809    
    220000   0.96831579     0.0023323615  -0.0018590118   19.804616      18.366667      1.4379489     -2.0828005      17693.351    
    221000   1.0783491      0.0023323615  -0.003372497    19.96466       18.363312      1.6013485     -2.2567218      17675.463    
    222000   1.0535984      0.0023323615   0.00055303268  19.956908      18.392314      1.5645936     -2.0681981      17688.318    
    223000   0.88750532     0.0023323615  -0.0010017427   19.821516      18.503571      1.3179454     -2.0342778      17721.092    
    224000   0.92681063     0.0023323615   0.0025379004   19.785242      18.408928      1.3763138     -2.1434192      17661.108    
    225000   0.9731405      0.0023323615   0.0013077141   19.780598      18.335485      1.4451136     -2.2714273      17640.235    
    226000   1.0123093      0.0023323615  -0.0030107871   19.652504      18.149225      1.5032794     -2.3100849      17581.308    
    227000   1.0523501      0.0023323615  -0.0013042507   19.90402       18.34128       1.5627399     -2.2131336      17791.777    
    228000   1.086276       0.0023323615   0.0030999662   19.654988      18.041868      1.6131199     -2.4617257      17632.298    
    229000   1.0873875      0.0023323615   0.00093022485  19.736932      18.122162      1.6147704     -2.3226111      17557.927    
    230000   0.9730118      0.0023323615  -0.0016071945   19.849804      18.404882      1.4449225     -2.1343763      17618.337    
    231000   1.1272549      0.0023323615  -0.0011733725   20.047994      18.37402       1.6739735     -2.1262431      17717.204    
    232000   1.0551757      0.0023323615   0.0021557644   19.762209      18.195273      1.5669359     -2.2909456      18092.797    
    233000   1.1399202      0.0023323615   0.0015648167   20.172652      18.479871      1.6927815     -2.0306515      18259.811    
    234000   1.0973954      0.0023323615   0.000144107    19.982915      18.353283      1.6296321     -2.1070253      18176.76     
    235000   1.0868766      0.0023323615  -0.0016287301   19.779889      18.165877      1.6140118     -2.2884885      18126.101    
    236000   0.97982937     0.0023323615  -7.4711287e-05  19.758078      18.303031      1.4550466     -2.1815683      18155.768    
    237000   1.0026119      0.0023323615  -0.0016126123   19.662247      18.173369      1.4888787     -2.2336038      18105.41     
    238000   0.89998136     0.0023323615  -0.0030745707   19.870859      18.534387      1.3364723     -2.0128284      18134.818    
    239000   0.99322854     0.0023323615   0.0036597943   20.379809      18.904864      1.4749444     -1.692041       17987.968    
    240000   1.1307281      0.0023323615   0.003521042    20.253117      18.573986      1.6791312     -2.0129426      17661.689    
    241000   1.0635646      0.0023323615   0.0031202205   20.212725      18.633332      1.5793934     -1.883349       17611.883    
    242000   1.0261275      0.0023323615  -0.0040355914   19.804425      18.280626      1.5237993     -2.2796092      17960.902    
    243000   0.86965081     0.0023323615   0.005016855    19.711267      18.419836      1.2914315     -2.1301887      18075.088    
    244000   1.002418       0.0023323615  -0.0015570101   19.92931       18.44072       1.4885908     -2.145863       16406.735    
    245000   1.0208016      0.0023323615   0.0025855091   20.187995      18.672105      1.5158904     -1.975647       18161.044    
    246000   1.0108071      0.0023323615   0.0016506752   19.946796      18.445747      1.5010485     -1.9831152      18084.425    
    247000   0.87222752     0.0023323615  -0.0047504988   19.64903       18.353773      1.2952579     -2.1827985      18052.982    
    248000   1.0164641      0.0023323615   0.0023910976   19.891226      18.381777      1.5094492     -2.2506896      17961.752    
    249000   1.1343831      0.0023323615   0.0010265397   20.18432       18.499761      1.6845589     -1.9408343      18088.954    
    250000   1.0634699      0.0023323615  -0.0034758608   20.201884      18.622631      1.5792528     -1.8976666      18056.385    
    251000   1.0438688      0.0023323615  -0.00011236124  19.91266       18.362515      1.5501451     -2.0998806      18150.578    
    252000   0.80118901     0.0023323615  -0.0044704853   19.546538      18.356772      1.1897657     -2.1626778      17985.171    
    253000   0.97486141     0.0023323615  -0.0045538519   19.893136      18.445467      1.4476692     -2.1186936      18154.995    
    254000   1.0366827      0.0023323615   0.0018052432   19.728274      18.1888        1.5394738     -2.3315179      18139.587    
    255000   0.9083405      0.0023323615  -0.0044331781   19.785298      18.436413      1.3488856     -2.0251254      18174.337    
    256000   1.0043473      0.0023323615   0.00080590611  19.770111      18.278655      1.4914558     -2.1425758      18099.822    
    257000   0.93080922     0.0023323615   0.0043570457   20.205777      18.823525      1.3822517     -1.7713251      18152.509    
    258000   1.1015895      0.0023323615  -0.0046432007   20.202259      18.566399      1.6358604     -2.0098278      18164.041    
    259000   0.94435418     0.0023323615  -0.0013951941   19.695815      18.293449      1.402366      -2.3430563      17827.504    
    260000   0.98658398     0.0023323615  -0.0043808456   19.753438      18.288361      1.4650772     -2.198201       18283.174    
    261000   0.95971848     0.0023323615  -0.0033397791   19.856626      18.431444      1.4251819     -2.0540298      18151.364    
    262000   0.92841121     0.0023323615   0.0045234922   19.68429       18.305599      1.3786906     -2.2850942      18203.276    
    263000   0.98879864     0.0023323615  -0.00077929901  19.888229      18.419863      1.468366      -2.1636701      18339.767    
    264000   1.0697437      0.0023323615   0.0028977229   20.054864      18.466294      1.5885693     -2.0476845      18218.411    
    265000   0.91068473     0.0023323615   0.0021811978   19.833101      18.480735      1.3523668     -2.1347492      18188.645    
    266000   0.92334453     0.0023323615   0.00044237783  19.711162      18.339996      1.3711666     -2.1792471      18277.965    
    267000   1.063769       0.0023323615   0.0028322118   19.7338        18.154103      1.5796969     -2.322059       18284.099    
    268000   1.0053253      0.0023323615   0.0048853629   19.708598      18.21569       1.4929081     -2.2136403      18245.536    
    269000   1.0238124      0.0023323615   0.002202845    19.876768      18.356406      1.5203614     -2.1750826      18225.31     
    270000   1.0129862      0.0023323615   0.00074059199  19.854133      18.349848      1.5042844     -2.1197727      18299.647    
    271000   1.0092565      0.0023323615  -0.0017484091   19.942756      18.44401       1.4987459     -2.0986814      18182.531    
    272000   0.99630418     0.0023323615  -0.0013770418   19.734095      18.254583      1.4795117     -2.1623493      18193.054    
    273000   0.93569565     0.0023323615  -0.00063908456  19.629263      18.239755      1.389508      -2.1551639      18168.703    
    274000   0.8777329      0.0023323615   0.002770481    19.653642      18.350209      1.3034334     -2.1519337      18359.329    
    275000   1.0189919      0.0023323615   0.0022223231   19.816178      18.302975      1.513203      -2.1366379      18285.409    
    276000   0.97615125     0.0023323615  -0.0042018629   20.12161       18.672025      1.4495846     -1.9442283      18248.912    
    277000   1.1125312      0.0023323615   0.0051246966   20.088582      18.436473      1.6521089     -2.0961292      18146.166    
    278000   1.0134411      0.0023323615  -0.0011659156   20.062965      18.558005      1.5049601     -2.0376467      18091.564    
    279000   0.92076738     0.0023323615   0.0007353281   19.585164      18.217824      1.3673396     -2.3544844      18204.438    
    280000   1.0348238      0.0023323615   0.0035756924   20.087165      18.550451      1.5367133     -2.0289642      18299.391    
    281000   1.0107003      0.0023323615   0.0017229174   19.9362        18.43531       1.5008899     -2.1127932      17759.471    
    282000   1.0043979      0.0023323615  -0.0040743726   20.086348      18.594817      1.491531      -1.9493868      17740.052    
    283000   1.0089301      0.0023323615   0.0056308739   20.067067      18.568805      1.4982611     -2.0585658      17788.073    
    284000   0.91286782     0.0023323615  -0.0010208178   19.680562      18.324953      1.3556087     -2.2204135      18220.379    
    285000   0.93335496     0.0023323615  -0.0017764715   19.726643      18.34061       1.3860321     -2.2397105      18304.143    
    286000   0.9034596      0.0023323615  -0.0034990535   19.921597      18.57996       1.3416375     -1.9877056      18165.671    
    287000   0.99155892     0.0023323615  -0.0033084703   19.879695      18.40723       1.472465      -2.0539043      18276.034    
    288000   0.88665143     0.0023323615  -0.00598766     19.913106      18.596428      1.3166774     -1.9269518      18337.566    
    289000   0.87904051     0.0023323615  -0.00024536027  19.973171      18.667796      1.3053752     -1.8417407      18216.442    
    290000   1.0097456      0.0023323615  -0.00043925818  20.211382      18.71191       1.4994722     -1.7515948      18160.224    
    291000   0.92398753     0.0023323615   0.0012278324   20.001494      18.629373      1.3721215     -1.9794885      18121.217    
    292000   1.0895944      0.0023323615   0.00053941068  19.903652      18.285605      1.6180477     -2.1101181      18145.879    
    293000   1.0445762      0.0023323615  -0.0038657249   19.821586      18.270391      1.5511957     -2.2788192      18175.37     
    294000   0.99961971     0.0023323615  -0.00058650893  20.012655      18.52822       1.4844353     -2.0883223      18125.689    
    295000   1.016538       0.0023323615  -0.0043025871   19.870153      18.360594      1.5095589     -2.1565446      18067.943    
    296000   1.0195785      0.0023323615   0.0013258898   20.052742      18.538668      1.5140741     -1.9381102      18267.919    
    297000   1.122305       0.0023323615   9.8283172e-05  20.181258      18.514635      1.6666229     -1.9815554      18022.243    
    298000   1.1132476      0.0023323615  -9.5200639e-05  20.056039      18.402866      1.6531727     -2.050994       17903.36     
    299000   0.88137508     0.0023323615  -0.00061659657  19.782395      18.473553      1.308842      -1.8903059      17870.264    
    300000   0.94395581     0.0023323615   0.0014834358   19.974907      18.573132      1.4017744     -2.0390044      18157.244    
    301000   1.1385079      0.0023323615  -0.0016791999   19.998096      18.307412      1.6906842     -2.2443795      18081.169    
    302000   1.0714729      0.0023323615  -0.0035262085   20.148624      18.557486      1.5911373     -2.0197543      18043.214    
    303000   0.91545604     0.0023323615  -0.0020412443   19.904726      18.545274      1.3594522     -2.0482576      18221.301    
    304000   0.93828135     0.0023323615  -0.0013630166   19.766052      18.372704      1.3933478     -2.0688309      18112.825    
    305000   0.94734705     0.0023323615   0.0011581493   19.800746      18.393936      1.4068104     -2.0849618      18191.708    
    306000   1.0979547      0.0023323615  -0.0015499105   20.209189      18.578727      1.6304628     -1.9651845      17717.339    
    307000   1.0296408      0.0023323615  -0.00033096602  19.934197      18.40518       1.5290166     -2.0652377      18076.673    
    308000   1.1894185      0.0023323615  -0.00025836684  20.509238      18.742951      1.7662864     -1.7357204      18140.827    
    309000   1.0620987      0.0023323615   0.00093001252  20.216937      18.63972       1.5772165     -1.9139934      18190.945    
    310000   0.98985816     0.0023323615   0.00076048726  20.071998      18.602059      1.4699394     -1.8288146      18161.705    
    311000   0.99215366     0.0023323615  -0.00033301409  19.580652      18.107304      1.4733482     -2.3837969      18133.737    
    312000   1.0768994      0.0023323615  -0.0039436714   20.044397      18.445202      1.5991956     -2.1343493      18120.848    
    313000   0.86994329     0.0023323615   0.001390496    19.629138      18.337272      1.2918658     -2.2530534      18064.986    
    314000   0.93463417     0.0023323615   0.0028389305   19.844448      18.456516      1.3879317     -2.130889       18096.79     
    315000   1.0306367      0.0023323615  -0.0061311176   19.848871      18.318376      1.5304955     -2.2806184      18096.265    
    316000   1.011013       0.0023323615  -0.0011912552   19.712343      18.210989      1.5013543     -2.2596101      18103.689    
    317000   1.0107842      0.0023323615  -0.0036427296   19.886265      18.385251      1.5010145     -2.0135214      17985.443    
    318000   0.94856417     0.0023323615  -0.0054931341   19.72052       18.311902      1.4086178     -2.3114119      18075.776    
    319000   1.0696016      0.0023323615   0.0016985382   20.104923      18.516564      1.5883584     -2.0070592      18147.45     
    320000   1.0776673      0.0023323615  -0.0023536176   20.288562      18.688226      1.600336      -1.8064649      18099.707    
    321000   0.98513155     0.0023323615  -0.0013401904   20.087281      18.624361      1.4629204     -1.8344687      18175.883    
    322000   1.0483177      0.0023323615  -0.0024586896   20.10551       18.548759      1.5567518     -1.9780128      18114.4      
    323000   1.0985487      0.0023323615  -0.0028409035   20.277899      18.646555      1.6313448     -1.9904812      18199.476    
    324000   1.0047517      0.0023323615   0.0016325439   20.151757      18.659701      1.4920563     -1.9326131      18261.088    
    325000   0.83110059     0.0023323615  -0.00019342591  19.326102      18.091918      1.2341844     -2.2975446      18297.335    
    326000   0.96898295     0.0023323615   0.0029600442   19.806609      18.367669      1.4389397     -2.2170952      18192.988    
    327000   1.0036533      0.0023323615   0.0025556854   19.888832      18.398407      1.4904252     -2.2014142      18116.718    
    328000   0.90505507     0.0023323615  -0.00013366106  19.721094      18.377088      1.3440068     -2.1567219      18076.051    
    329000   0.79168495     0.0023323615   0.0021430775   19.761002      18.58535       1.1756522     -1.8392174      17771.189    
    330000   0.98685635     0.0023323615   0.0015366603   19.891352      18.425871      1.4654817     -2.0836368      17751.673    
    331000   0.98594134     0.0023323615  -0.00072854153  19.816663      18.35254       1.4641229     -2.169666       17747.951    
    332000   0.86210713     0.0023323615   0.0006044362   19.82198       18.541751      1.2802291     -1.9844972      17614.32     
    333000   1.0717863      0.0023323615  -0.0022472652   19.881465      18.289862      1.5916026     -2.187013       17762.688    
    334000   1.0317207      0.0023323615   0.002082643    20.15247       18.620365      1.5321053     -1.895121       17845.988    
    335000   1.1139046      0.0023323615   0.00082614431  20.237468      18.58332       1.6541484     -2.0211374      18222.186    
    336000   1.0827441      0.0023323615  -0.0010760395   19.925949      18.318074      1.607875      -2.2939848      17654.398    
    337000   1.0346123      0.0023323615  -0.00077268969  19.820893      18.284494      1.5363993     -2.1303049      18197.386    
    338000   1.0440206      0.0023323615   0.00022750253  20.058016      18.507645      1.5503707     -2.0469762      18261.716    
    339000   0.95767045     0.0023323615  -0.001102794    19.867198      18.445057      1.4221406     -1.9804097      18228.708    
    340000   1.1236129      0.0023323615   0.0051557734   20.238855      18.57029       1.6685652     -1.9241492      18337.004    
    341000   0.93752324     0.0023323615  -0.003615224    19.628135      18.235913      1.392222      -2.1520982      18239.714    
    342000   0.92612305     0.0023323615   0.001847895    19.624417      18.249124      1.3752927     -2.2112642      18147.354    
    343000   0.82300351     0.0023323615  -0.0022757595   19.615253      18.393093      1.2221602     -2.1765719      18180.664    
    344000   0.91377138     0.0023323615   0.0014915758   19.698146      18.341195      1.3569505     -2.1836434      18129.074    
    345000   0.89569481     0.0023323615   0.00053274409  19.648618      18.318512      1.3301068     -2.1646609      18171.323    
    346000   1.1591944      0.0023323615   0.0028840694   19.940294      18.218891      1.7214037     -2.1842883      18330.791    
    347000   1.0961532      0.0023323615  -0.0020650923   20.271731      18.643943      1.6277875     -1.8698684      18351.167    
    348000   1.1688679      0.0023323615   0.0018342191   19.818579      18.08281       1.7357689     -2.3314376      18248.555    
    349000   1.0491027      0.0023323615  -0.0027270918   19.914867      18.356949      1.5579175     -2.1864681      18242.931    
    350000   0.95446532     0.0023323615  -0.0025307046   19.913707      18.496326      1.417381      -2.0526043      18202.619    
    351000   0.99553125     0.0023323615  -0.000647754    20.005546      18.527182      1.4783639     -2.0057399      18177.915    
    352000   0.97288847     0.0023323615   0.00078202628  20.075727      18.630988      1.4447394     -1.880644       18218.716    
    353000   0.983916       0.0023323615  -0.00012489253  20.103796      18.642681      1.4611153     -1.8899795      18175.535    
    354000   1.0374605      0.0023323615  -0.0016218626   20.03019       18.489561      1.5406288     -1.9431024      18249.666    
    355000   1.2087982      0.0023323615   0.0012997734   20.386263      18.591198      1.7950654     -1.8770963      18203.436    
    356000   0.94204037     0.0023323615   0.0035821445   19.885695      18.486765      1.39893       -2.0797097      18186.997    
    357000   0.93263301     0.0023323615   0.0041115674   20.121629      18.736669      1.38496       -1.8274367      18185.056    
    358000   0.97960751     0.0023323615  -0.00033724109  19.985212      18.530495      1.4547172     -1.9061345      18312.193    
    359000   1.1166644      0.0023323615   0.0032460517   20.075548      18.417302      1.6582466     -2.056254       18178.568    
    360000   0.91368612     0.0023323615  -0.00026446425  19.605535      18.248711      1.3568239     -2.1969535      18259.865    
    361000   1.0565715      0.0023323615  -0.00027763758  20.160965      18.591956      1.5690087     -1.8825176      18229.151    
    362000   0.9395665      0.0023323615  -0.003756295    19.895687      18.50043       1.3952563     -1.9780394      18221.447    
    363000   1.1142474      0.0023323615   0.0010615656   20.219529      18.564872      1.6546574     -1.9419948      18279.434    
    364000   0.96380115     0.0023323615   0.0010778945   20.032225      18.60098       1.4312447     -1.8513126      18268.14     
    365000   0.85765292     0.0023323615  -0.0026054839   19.804397      18.530782      1.2736146     -1.9541909      18406.592    
    366000   0.95147175     0.0023323615   0.0022170116   19.928658      18.515722      1.4129355     -1.9441324      18390.009    
    367000   0.93952689     0.0023323615  -0.0021840317   19.77893       18.383732      1.3951974     -2.0587167      18342.068    
    368000   0.9654442      0.0023323615   0.0035435053   19.978695      18.54501       1.4336846     -1.8949538      18332.275    
    369000   0.99107684     0.0023323615  -0.0039261499   20.021722      18.549973      1.4717491     -1.8570313      18193.438    
    370000   0.95861635     0.0023323615  -0.00062431441  20.194606      18.771061      1.4235453     -1.8003095      18046.865    
    371000   0.95692543     0.0023323615  -0.0016325444   19.820875      18.399841      1.4210343     -2.1377944      18297.563    
    372000   0.89099462     0.0023323615  -0.0036966334   19.676498      18.353371      1.323127      -2.169945       18351.518    
    373000   1.2669433      0.0023323615   0.0006652609   20.521698      18.640287      1.8814108     -1.9139431      18189.692    
    374000   0.98826575     0.0023323615  -9.0437574e-05  19.704086      18.236511      1.4675746     -2.3426517      18168.316    
    375000   1.0207213      0.0023323615   0.0057309041   19.703992      18.18822       1.5157711     -2.239183       18208.271    
    376000   1.0944527      0.0023323615  -0.0013594771   19.964313      18.339051      1.6252623     -2.184053       18324.144    
    377000   0.94264236     0.0023323615  -0.00017542483  19.528766      18.128942      1.3998239     -2.3866747      18326.748    
    378000   0.93468035     0.0023323615  -0.0028860021   19.769403      18.381402      1.3880003     -2.1762585      18306.01     
    379000   1.1306547      0.0023323615  -0.00065076408  19.968071      18.289049      1.6790222     -2.1746442      18198.56     
    380000   0.90882854     0.0023323615  -0.0050907047   19.850831      18.50122       1.3496104     -1.9406523      18188.588    
    381000   1.0150108      0.0023323615   0.0047889044   19.948779      18.441488      1.5072911     -2.0004675      18263.37     
    382000   1.1294086      0.0023323615   0.00028406177  20.181977      18.504805      1.6771718     -2.0423207      18289.5      
    383000   1.0248003      0.0023323615  -0.00065952305  20.010138      18.488309      1.5218284     -2.0762963      18268.273    
    384000   1.0615474      0.0023323615  -0.0011471056   19.838112      18.261714      1.5763979     -2.2038428      18229.764    
    385000   0.9993573      0.0023323615  -0.0031327559   19.881121      18.397076      1.4840456     -2.119648       18241.011    
    386000   1.0916101      0.0023323615   0.00074099599  20.242255      18.621214      1.6210409     -1.896394       18285.841    
    387000   1.1176106      0.0023323615  -0.00033307714  20.040728      18.381076      1.6596517     -2.2414766      18156.634    
    388000   1.0173506      0.0023323615  -0.00073568834  19.932841      18.422075      1.5107656     -2.1766002      18237.121    
    389000   0.97331837     0.0023323615   0.0015896618   19.467062      18.021684      1.4453778     -2.3777553      18263.584    
    390000   0.8547085      0.0023323615  -0.0022357333   19.580296      18.311054      1.2692421     -2.2146826      18242.805    
    391000   0.86329811     0.0023323615   0.0018182491   19.67749       18.395492      1.2819977     -2.0913967      18188.011    
    392000   0.93402197     0.0023323615  -0.0011825756   19.915707      18.528685      1.3870226     -2.0521679      18177.227    
    393000   0.89261317     0.0023323615  -0.0029431844   19.864718      18.539187      1.3255306     -1.9047179      18092.873    
    394000   1.0897888      0.0023323615   0.00079478636  20.161321      18.542985      1.6183363     -1.9968013      18230.033    
    395000   1.0017791      0.0023323615  -0.00094122227  19.891639      18.403997      1.487642      -2.1282588      18303.361    
    396000   0.90654937     0.0023323615  -0.00064208968  19.708012      18.361787      1.3462258     -2.2105297      18262.969    
    397000   0.9191947      0.0023323615  -0.002539758    19.815961      18.450957      1.3650041     -2.1294988      18255.627    
    398000   0.87973634     0.0023323615   0.002754811    19.756447      18.450038      1.3064085     -1.9756304      18413.645    
    399000   0.94363391     0.0023323615  -0.0016223504   20.293938      18.892641      1.4012964     -1.6604028      18400.973    
    400000   1.1475646      0.0023323615  -0.00088570192  20.427573      18.723439      1.7041335     -1.7539241      18295.544    
    401000   0.97468984     0.0023323615  -0.00019712322  20.088584      18.641169      1.4474144     -1.9812049      18406.762    
    402000   0.84813861     0.0023323615  -0.00068697817  19.665989      18.406503      1.2594858     -2.1147654      18467.71     
    403000   1.0522879      0.0023323615  -0.0011060053   20.111223      18.548576      1.5626475     -1.8945119      18441.87     
    404000   1.0266055      0.0023323615  -0.00070801154  19.849766      18.325257      1.5245092     -2.2633605      18433.41     
    405000   0.93062992     0.0023323615  -0.0019150657   20.039748      18.657762      1.3819854     -1.8910473      18398.26     
    406000   0.92545393     0.0023323615   0.0013494447   19.987217      18.612918      1.3742991     -1.9790785      18365.322    
    407000   0.95754298     0.0023323615  -0.00098469115  19.982405      18.560453      1.4219513     -2.0078254      18136.281    
    408000   1.068221       0.0023323615   7.4471053e-05  20.159681      18.573373      1.5863081     -1.9658196      17985.599    
    409000   1.073894       0.0023323615   0.0013143155   19.988896      18.394163      1.5947326     -2.0800996      17951.999    
    410000   1.0559961      0.0023323615   0.0067869334   19.998269      18.430115      1.5681542     -2.07937        17893.638    
[...]
    861000   1.0874772      0.0023323615   0.0013722292   20.151678      18.536775      1.6149036     -1.9700121      18314.817    
    862000   1.0295633      0.0023323615  -0.0022983577   19.620893      18.091992      1.5289015     -2.3491927      18258.065    
    863000   1.0204148      0.0023323615   7.1935607e-05  20.037         18.521684      1.515316      -2.0926359      18229.444    
    864000   0.91897401     0.0023323615  -0.0029929558   19.811848      18.447172      1.3646764     -2.1206643      18399.759    
    865000   0.94501362     0.0023323615  -0.00055059059  19.801514      18.398168      1.4033452     -2.1038475      18353.117    
    866000   0.97546237     0.0023323615   0.00010080546  19.865418      18.416857      1.4485616     -2.0621721      18379.745    
    867000   0.88972552     0.0023323615   0.0023855083   19.688414      18.367171      1.3212424     -2.1617416      18247.21     
    868000   1.0867212      0.0023323615   0.0052933545   20.031587      18.417806      1.613781      -2.2575092      18257.163    
    869000   1.0424214      0.0023323615   0.00084322001  19.838919      18.290923      1.5479957     -2.1760798      18270.4      
    870000   0.95504237     0.0023323615   0.0017584471   19.558576      18.140338      1.4182379     -2.281505       18299.929    
    871000   1.1426561      0.0023323615  -0.003354919    20.182874      18.48603       1.6968444     -1.9940539      18207.141    
    872000   0.96476608     0.0023323615   0.0023671472   19.877828      18.445151      1.4326776     -2.1529881      18325.248    
    873000   1.028116       0.0023323615  -0.0039389277   19.862749      18.335997      1.5267522     -2.1608528      18299.623    
    874000   1.0559818      0.0023323615   0.0038993604   20.006064      18.437931      1.568133      -2.0374493      18320.485    
    875000   0.91487629     0.0023323615   0.0026651467   19.474351      18.11576       1.3585913     -2.365447       18281.986    
    876000   1.1681128      0.0023323615  -0.0053632307   20.114598      18.379951      1.7346474     -2.2157463      18214.607    
    877000   0.86782112     0.0023323615  -0.00089174275  19.868439      18.579724      1.2887144     -1.9398292      18210.925    
    878000   1.0653584      0.0023323615  -0.0012311932   19.996359      18.414301      1.5820572     -2.1004304      17938.393    
    879000   1.1218823      0.0023323615   0.0053468589   20.186646      18.520651      1.6659952     -1.9670689      18301.78     
    880000   1.0751963      0.0023323615   0.002737726    20.28389       18.687223      1.5966665     -1.865381       18212.853    
    881000   0.87986557     0.0023323615   0.00097943526  19.936835      18.630234      1.3066004     -1.8170838      18215.029    
    882000   1.0705593      0.0023323615  -0.00092666541  19.990275      18.400495      1.5897805     -2.1361574      18173.378    
    883000   1.0058102      0.0023323615   0.0033195396   20.001858      18.50823       1.4936282     -2.0905766      18349.787    
    884000   1.0848526      0.0023323615  -0.00014635157  20.037881      18.426875      1.6110061     -2.1030147      18187.763    
    885000   0.94953103     0.0023323615   0.0010346559   19.536185      18.126132      1.4100536     -2.3056997      18107.059    
    886000   0.91714353     0.0023323615   1.5461469e-05  20.018073      18.656115      1.3619581     -1.9244224      18174.807    
    887000   0.95664566     0.0023323615  -0.0027162596   19.786904      18.366286      1.4206188     -2.2130944      18253.103    
    888000   1.0761606      0.0023323615   0.0029295135   20.094798      18.4967        1.5980985     -2.0984967      18283.861    
    889000   1.003274       0.0023323615  -0.00043652618  19.932004      18.442142      1.4898618     -1.9739448      18201.417    
    890000   1.1537181      0.0023323615   0.0036084896   20.131922      18.418651      1.7132713     -2.0398283      18116.928    
    891000   0.88908548     0.0023323615   0.0021746282   19.674062      18.35377       1.3202919     -2.2085894      18124.554    
    892000   1.0522641      0.0023323615  -0.00016270818  19.895051      18.332439      1.5626121     -2.2805605      18180.213    
    893000   1.0855186      0.0023323615   0.002411489    19.999595      18.3876        1.6119951     -2.0953304      18342.742    
    894000   1.0871677      0.0023323615   6.1908062e-05  19.907046      18.292602      1.6144441     -2.200632       18285.663    
    895000   1.1041595      0.0023323615  -0.00014188861  19.977174      18.337497      1.6396769     -2.2274525      18298.264    
    896000   0.92411373     0.0023323615  -0.0009599006   19.732251      18.359942      1.3723089     -2.1551689      18310.976    
    897000   0.99027018     0.0023323615   0.0054623023   19.75679       18.286239      1.4705512     -2.1327904      18333.797    
    898000   1.098096       0.0023323615   0.0034185535   20.143955      18.513283      1.6306726     -1.9486855      17914.272    
    899000   1.0738653      0.0023323615   0.0030106663   19.902254      18.307564      1.5946899     -2.1708697      17745.925    
    900000   1.0794457      0.0023323615  -0.0041330118   19.987658      18.384681      1.6029769     -2.2593033      18245.572    
    901000   0.8532068      0.0023323615  -0.0025467228   19.469365      18.202353      1.2670121     -2.2682196      18274.2      
    902000   1.0433047      0.0023323615   0.00036998651  19.837458      18.288151      1.5493074     -2.2749361      18012.392    
    903000   0.94689455     0.0023323615  -0.0017478016   19.86798       18.461841      1.4061384     -1.9706864      18075.874    
    904000   1.0181863      0.0023323615  -0.001341002    19.955315      18.443309      1.5120066     -2.0800374      18126.364    
    905000   0.95042612     0.0023323615  -2.7808523e-05  19.739743      18.32836       1.4113828     -2.2591247      18196.403    
    906000   0.98317805     0.0023323615   0.0030910286   19.771209      18.31119       1.4600194     -2.1838447      18316.209    
    907000   0.97742086     0.0023323615  -0.00064265383  19.849001      18.397531      1.45147       -2.0710324      18180.349    
    908000   0.85285594     0.0023323615  -0.0022057216   19.378541      18.11205       1.2664911     -2.3069638      18187.143    
    909000   0.98960081     0.0023323615   0.0026261235   19.66841       18.198853      1.4695572     -2.3530923      18214.913    
    910000   0.98658271     0.0023323615  -0.00036680517  19.572303      18.107227      1.4650753     -2.3870984      18124.729    
    911000   1.0687747      0.0023323615   0.0010939547   20.040719      18.453589      1.5871305     -2.0866556      18289.087    
    912000   1.1410619      0.0023323615   0.00032230654  20.239873      18.545396      1.694477      -1.9971228      18052.841    
    913000   0.83943341     0.0023323615   0.0010695693   19.446602      18.200043      1.2465586     -2.2332558      18304.103    
    914000   1.167339       0.0023323615   0.0019864462   20.362686      18.629187      1.7334983     -1.9478527      18246.003    
    915000   1.0455346      0.0023323615  -0.00059194483  19.779405      18.226786      1.5526188     -2.1755984      18231.992    
    916000   1.0130279      0.0023323615  -0.0020127282   20.111057      18.606711      1.5043464     -1.8538456      18037.769    
    917000   0.91143907     0.0023323615  -0.0033185771   19.854877      18.50139       1.353487      -2.0845495      17915.208    
    918000   0.92060908     0.0023323615   0.0024558969   19.692458      18.325353      1.3671045     -2.16971        17804.554    
    919000   1.0371171      0.0023323615  -0.00072230953  19.821217      18.281099      1.5401189     -2.2633234      17825.145    
    920000   0.95164327     0.0023323615  -0.0028477945   19.882589      18.469399      1.4131903     -2.0401769      18259.087    
    921000   1.0351575      0.0023323615   0.00081073489  20.092354      18.555146      1.5372089     -1.9932198      18332.558    
    922000   0.9051114      0.0023323615   0.0046356681   19.64883       18.304739      1.3440904     -2.2340258      18255.183    
    923000   0.94179759     0.0023323615  -0.0016535189   19.945904      18.547334      1.3985694     -1.8592527      18412.616    
    924000   1.0515993      0.0023323615  -0.001488174    20.328206      18.766581      1.5616249     -1.7889601      18343.117    
    925000   0.91326998     0.0023323615   0.0013842439   19.617593      18.261387      1.3562059     -2.1160571      18074.064    
    926000   1.0303801      0.0023323615   0.0010689787   20.125167      18.595053      1.5301144     -2.0542558      17965.754    
    927000   0.8898643      0.0023323615   0.0035512066   19.70288       18.381431      1.3214485     -2.0987023      18095.651    
    928000   0.93564222     0.0023323615  -0.0015300897   19.852771      18.463342      1.3894287     -2.0408425      17909.859    
    929000   0.97290061     0.0023323615  -0.005220619    19.647605      18.202848      1.4447574     -2.2998463      18161.245    
    930000   0.94700599     0.0023323615  -0.00012518152  19.828814      18.42251       1.4063039     -2.106674       18157.68     
    931000   0.91182542     0.0023323615   0.0026223561   19.692802      18.338741      1.3540608     -2.1455237      18153.972    
    932000   1.2299599      0.0023323615  -0.003111824    20.513567      18.687076      1.8264904     -1.8722688      18148.875    
    933000   0.89234664     0.0023323615  -0.0046479449   19.64743       18.322295      1.3251348     -2.1460987      18313.107    
    934000   1.0536799      0.0023323615   0.00017573782  19.877678      18.312963      1.5647146     -2.1477697      18277.118    
    935000   1.0039109      0.0023323615  -0.0028017146   20.048983      18.558176      1.4908077     -1.963035       18203.645    
    936000   0.97830099     0.0023323615  -0.0025821249   19.875837      18.42306       1.452777      -2.1177591      18275.472    
    937000   1.049747       0.0023323615   0.0013175065   19.85032       18.291446      1.5588743     -2.2308497      18157.958    
    938000   1.1068829      0.0023323615   0.0019035104   20.069567      18.425846      1.6437212     -2.1752349      18335.006    
    939000   0.95346898     0.0023323615  -0.0020964746   19.732193      18.316291      1.4159014     -2.255608       18368.38     
    940000   0.95430175     0.0023323615  -0.0013037223   19.7697        18.352562      1.4171381     -2.1639644      18350.637    
    941000   0.86804113     0.0023323615  -0.00052200093  19.36601       18.076969      1.2890411     -2.3788031      18292.356    
    942000   1.1959631      0.0023323615  -0.00010508013  20.485828      18.709823      1.7760052     -2.0229117      17872.232    
    943000   0.9597858      0.0023323615   0.0014876395   19.913869      18.488587      1.4252819     -2.0159449      17903.694    
    944000   1.0796971      0.0023323615   0.0033828369   19.792979      18.189628      1.6033502     -2.3184567      17889.517    
    945000   1.0809356      0.0023323615   0.0028245477   20.201249      18.596059      1.6051894     -1.990359       17838.726    
    946000   0.90629982     0.0023323615  -0.0012168964   19.88669       18.540835      1.3458552     -2.1131557      17856.035    
    947000   0.92777285     0.0023323615   0.001523375    19.826081      18.448338      1.3777427     -2.0138981      17750.025    
    948000   1.1838583      0.0023323615   0.0013042126   20.417496      18.659467      1.7580296     -1.9215549      18259.03     
    949000   0.93928314     0.0023323615  -0.00039226236  20.106406      18.71157       1.3948355     -1.8729283      18210.726    
    950000   0.95782928     0.0023323615  -0.0028391296   20.161132      18.738756      1.4223765     -1.9307817      18074.27     
    951000   1.0742588      0.0023323615   0.00056797838  20.003469      18.408194      1.5952743     -2.067441       18089.427    
    952000   1.1344634      0.0023323615  -0.00083071953  20.139975      18.455297      1.6846781     -2.1460559      18172.712    
    953000   0.84199572     0.0023323615  -0.0019455398   19.644046      18.393682      1.2503636     -2.0361943      18160.264    
    954000   0.99845927     0.0023323615  -0.0014992752   19.932632      18.44992       1.482712      -2.0481282      18108.277    
    955000   0.84673793     0.0023323615   0.0021227696   19.669002      18.411596      1.2574058     -2.0828464      18261.84     
    956000   1.061174       0.0023323615  -0.00055704896  19.999439      18.423595      1.5758434     -2.0186997      18259.214    
    957000   1.1008842      0.0023323615   0.0011633483   19.840438      18.205624      1.6348131     -2.2690167      18120.707    
    958000   0.91463583     0.0023323615  -0.00085834776  20.225508      18.867274      1.3582342     -1.6541252      17838.71     
    959000   0.85270839     0.0023323615   0.004200878    19.839964      18.573692      1.266272      -2.0649491      17741.935    
    960000   1.0649898      0.0023323615  -0.0026140128   19.912411      18.330901      1.5815098     -2.0581122      18111.478    
    961000   1.0809187      0.0023323615   0.0017480252   19.958881      18.353717      1.6051643     -2.158328       18147.849    
    962000   0.99444113     0.0023323615  -0.0011887065   19.606416      18.129671      1.4767451     -2.3320247      18248.758    
    963000   1.116102       0.0023323615  -0.0017272131   20.124654      18.467242      1.6574115     -2.1138138      18063.234    
    964000   0.9400469      0.0023323615   0.0016789613   19.678053      18.282083      1.3959697     -2.1711272      18126.315    
    965000   1.0338706      0.0023323615   0.0039219881   19.893135      18.357837      1.5352978     -2.1470009      18205.823    
    966000   0.98829473     0.0023323615   0.0045900307   19.510042      18.042424      1.4676177     -2.464519       18218.274    
    967000   0.83064215     0.0023323615  -0.0016770498   19.684656      18.451152      1.2335036     -2.1456296      18177.601    
    968000   1.0481174      0.0023323615  -0.00097391865  19.987388      18.430934      1.5564543     -2.2047708      18312.858    
    969000   1.0028091      0.0023323615  -0.0021080454   19.763807      18.274635      1.4891716     -2.2080582      18308.525    
    970000   0.9015609      0.0023323615  -0.00048595467  19.662059      18.323241      1.3388179     -2.142376       18331.777    
    971000   1.0111265      0.0023323615  -0.00016761137  19.917972      18.41645       1.5015228     -2.0310271      18215.744    
    972000   1.1041369      0.0023323615  -0.0023923078   20.337102      18.697459      1.6396433     -1.8419817      18148.01     
    973000   1.1069297      0.0023323615   0.0012700419   20.244658      18.600868      1.6437906     -1.9688296      17876.208    
    974000   1.1510222      0.0023323615  -0.0019658478   20.320544      18.611276      1.709268      -2.0586808      17507.748    
    975000   1.0786563      0.0023323615   0.0035122067   20.085448      18.483644      1.6018046     -2.0217515      17615.293    
    976000   1.026268       0.0023323615  -0.0019434293   20.129454      18.605446      1.524008      -1.9057602      17616.682    
    977000   1.0867102      0.0023323615  -0.00024762781  20.002588      18.388823      1.6137647     -2.1089082      17526.375    
    978000   1.0455576      0.0023323615   0.0029387542   19.977802      18.425149      1.5526531     -2.1577798      17316.729    
    979000   0.89836975     0.0023323615   0.0016200157   19.926904      18.592825      1.3340791     -1.8676535      17380.625    
    980000   0.887555       0.0023323615   0.0023232464   19.538974      18.220955      1.3180192     -2.1905567      17647.259    
    981000   1.1765211      0.0023323615   0.0013609837   20.176119      18.428985      1.7471339     -1.9927695      17694.979    
    982000   0.94440704     0.0023323615   0.0036007515   19.625011      18.222566      1.4024444     -2.1762097      17831.829    
    983000   1.1267487      0.0023323615   0.0016595409   20.044898      18.371677      1.6732218     -1.9997554      17904.413    
    984000   0.95539655     0.0023323615   0.0030947228   19.693677      18.274913      1.4187639     -2.270662       17870.898    
    985000   1.1151075      0.0023323615  -1.4407537e-05  19.852191      18.196256      1.6559347     -2.2432205      17783.912    
    986000   1.0439424      0.0023323615  -0.0013241336   19.873803      18.323548      1.5502545     -2.0734278      17719.56     
    987000   0.96506259     0.0023323615  -0.0024797272   19.989204      18.556086      1.433118      -1.970044       17794.739    
    988000   0.93504574     0.0023323615   0.0021252027   20.056117      18.667574      1.3885429     -1.8302912      17852.602    
    989000   0.96320331     0.0023323615  -0.0011395403   19.748827      18.31847       1.4303569     -2.2158025      17766.571    
    990000   1.1323042      0.0023323615  -0.0025021774   20.346045      18.664573      1.6814717     -1.9423283      17799.892    
    991000   1.0894911      0.0023323615   0.0065846667   19.880906      18.263012      1.6178943     -2.2159637      17732.051    
    992000   1.0769654      0.0023323615  -0.0040387571   20.35871       18.759417      1.5992936     -1.929316       17848.184    
    993000   0.93909966     0.0023323615   0.00099721852  19.822934      18.428371      1.394563      -2.0803678      17935.837    
    994000   0.97369793     0.0023323615  -0.0027053101   20.097287      18.651346      1.4459414     -1.9317186      17966.893    
    995000   0.91465839     0.0023323615   0.003020334    19.445245      18.086977      1.3582677     -2.3848988      17805.379    
    996000   1.0219942      0.0023323615   0.0062965208   19.87673       18.359069      1.5176613     -2.1297965      17966.003    
    997000   1.083884       0.0023323615   0.0041853836   20.184704      18.575136      1.6095678     -1.9870018      18027.279    
    998000   0.89561841     0.0023323615  -0.0018379428   19.618026      18.288033      1.3299933     -2.1220752      17866.656    
    999000   1.0437193      0.0023323615  -0.0013476147   19.846873      18.296949      1.5499232     -2.191372       17815.285    
   1000000   0.95853205     0.0023323615   0.001321276    19.760954      18.337533      1.4234201     -2.1721519      17906.273    
Loop time of 55.2909 on 1 procs for 1000000 steps with 100 atoms

Performance: 7813223.115 tau/day, 18086.165 timesteps/s
99.0% CPU use with 1 MPI tasks x 1 OpenMP threads

MPI task timing breakdown:
Section |  min time  |  avg time  |  max time  |%varavg| %total
---------------------------------------------------------------
Pair    | 46.163     | 46.163     | 46.163     |   0.0 | 83.49
Bond    | 1.265      | 1.265      | 1.265      |   0.0 |  2.29
Neigh   | 3.7723     | 3.7723     | 3.7723     |   0.0 |  6.82
Comm    | 1.365      | 1.365      | 1.365      |   0.0 |  2.47
Output  | 0.41098    | 0.41098    | 0.41098    |   0.0 |  0.74
Modify  | 1.9564     | 1.9564     | 1.9564     |   0.0 |  3.54
Other   |            | 0.3581     |            |       |  0.65

Nlocal:            100 ave         100 max         100 min
Histogram: 1 0 0 0 0 0 0 0 0 0
Nghost:            306 ave         306 max         306 min
Histogram: 1 0 0 0 0 0 0 0 0 0
Neighs:           4851 ave        4851 max        4851 min
Histogram: 1 0 0 0 0 0 0 0 0 0

Total # of neighbors = 4851
Ave neighs/atom = 48.51
Ave special neighs/atom = 1.98
Neighbor list builds = 97699
Dangerous builds = 78362

write_data      ${outputfile_assembled} nofix nocoeff
write_data      7_assembled.data nofix nocoeff
System init for write_data ...
Generated 0 of 6 mixed pair_coeff terms from geometric mixing rule

Total wall time: 0:00:56
