LAMMPS (23 Jun 2022 - Update 1)
OMP_NUM_THREADS environment is not set. Defaulting to 1 thread. (src/comm.cpp:98)
  using 1 OpenMP thread(s) per MPI task


variable        runtime equal 1000000
variable		subsample_rate equal 1000

variable		outputfile_created string '3_created.data'
variable		outputfile_relaxed string '5_relaxed.data'
variable		outputfile_selfasb string '6_a_self_assemble.lammpstrj'
variable		outputfile_trajlin string '6_b_trajlin.data'
variable		outputfile_assembled string '7_assembled.data'

units           lj
atom_style      full
dimension       3
boundary        p p p
timestep        0.005

read_data       ${outputfile_created}
read_data       3_created.data
Reading data file ...
  orthogonal box = (0 0 0) to (35 35 35)
  1 by 1 by 1 MPI processor grid
  reading atoms ...
  100 atoms
  reading velocities ...
  100 velocities
  scanning bonds ...
  1 = max bonds/atom
  reading bonds ...
  99 bonds
Finding 1-2 1-3 1-4 neighbors ...
  special bond factors lj:    0        0        0       
  special bond factors coul:  0        0        0       
     2 = max # of 1-2 neighbors
     2 = max # of 1-3 neighbors
     4 = max # of 1-4 neighbors
     6 = max # of special neighbors
  special bonds CPU = 0.000 seconds
  read_data CPU = 0.007 seconds

bond_style      fene
bond_coeff      * 30.0 1.5 1.0 1.0
special_bonds   fene
Finding 1-2 1-3 1-4 neighbors ...
  special bond factors lj:    0        1        1       
  special bond factors coul:  0        1        1       
     2 = max # of 1-2 neighbors
     6 = max # of special neighbors
  special bonds CPU = 0.000 seconds

variable        Temp equal 1.0
variable        velSeed equal 926458

velocity        all create ${Temp} ${velSeed}
velocity        all create 1 ${velSeed}
velocity        all create 1 926458

### Output
thermo_style    custom step temp density press etotal pe ke epair spcpu
thermo          1000

###########################################################################
# Soft relaxation (to remove overlaps of particles)
######################################################################

pair_style      soft 1.0
pair_coeff      * * 0.0
variable        prefactor equal ramp(0,300)
fix             rampSoft all adapt 1 pair soft a * * v_prefactor

minimize        0.0 1.0e-8 1000 100000
WARNING: Using 'neigh_modify every 1 delay 0 check yes' setting during minimization (src/min.cpp:187)
Generated 0 of 6 mixed pair_coeff terms from geometric mixing rule
Neighbor list info ...
  update every 1 steps, delay 0 steps, check yes
  max neighbors/atom: 2000, page size: 100000
  master list distance cutoff = 1.3
  ghost atom cutoff = 1.3
  binsize = 0.65, bins = 54 54 54
  1 neighbor lists, perpetual/occasional/extra = 1 0 0
  (1) pair soft, perpetual
      attributes: half, newton on
      pair build: half/bin/newton
      stencil: half/bin/3d
      bin: standard
WARNING: Communication cutoff 1.3 is shorter than a bond length based estimate of 1.7550000000000001. This may lead to errors. (src/comm.cpp:727)
Per MPI rank memory allocation (min/avg/max) = 8.346 | 8.346 | 8.346 Mbytes
   Step          Temp         Density         Press          TotEng         PotEng         KinEng         E_pair         S/CPU     
         0   1              0.0023323615  -0.0039617958   21.524174      20.039174      1.485          0              0            
       362   1              0.0023323615   0.0023090379   21.485548      20.000548      1.485          0              69334.287    
Loop time of 0.0052253 on 1 procs for 362 steps with 100 atoms

97.7% CPU use with 1 MPI tasks x 1 OpenMP threads

Minimization stats:
  Stopping criterion = force tolerance
  Energy initial, next-to-last, final = 
      20.0391741078675   20.0005480767337   20.0005480767337
  Force two-norm initial, final = 11.878422 7.9509778e-09
  Force max component initial, final = 6.6117807 1.3572772e-09
  Final line search alpha, max atom move = 1 1.3572772e-09
  Iterations, force evaluations = 362 738

MPI task timing breakdown:
Section |  min time  |  avg time  |  max time  |%varavg| %total
---------------------------------------------------------------
Pair    | 0.00022195 | 0.00022195 | 0.00022195 |   0.0 |  4.25
Bond    | 0.0023113  | 0.0023113  | 0.0023113  |   0.0 | 44.23
Neigh   | 0.0015239  | 0.0015239  | 0.0015239  |   0.0 | 29.16
Comm    | 0.00018018 | 0.00018018 | 0.00018018 |   0.0 |  3.45
Output  | 0          | 0          | 0          |   0.0 |  0.00
Modify  | 0          | 0          | 0          |   0.0 |  0.00
Other   |            | 0.000988   |            |       | 18.91

Nlocal:            100 ave         100 max         100 min
Histogram: 1 0 0 0 0 0 0 0 0 0
Nghost:             20 ave          20 max          20 min
Histogram: 1 0 0 0 0 0 0 0 0 0
Neighs:              0 ave           0 max           0 min
Histogram: 1 0 0 0 0 0 0 0 0 0

Total # of neighbors = 0
Ave neighs/atom = 0
Ave special neighs/atom = 1.98
Neighbor list builds = 17
Dangerous builds = 0

fix             nvtSoft all nvt temp ${Temp} ${Temp} 0.5
fix             nvtSoft all nvt temp 1 ${Temp} 0.5
fix             nvtSoft all nvt temp 1 1 0.5
run             100000
Generated 0 of 6 mixed pair_coeff terms from geometric mixing rule
WARNING: Communication cutoff 1.3 is shorter than a bond length based estimate of 1.7550000000000001. This may lead to errors. (src/comm.cpp:727)
Per MPI rank memory allocation (min/avg/max) = 7.221 | 7.221 | 7.221 Mbytes
   Step          Temp         Density         Press          TotEng         PotEng         KinEng         E_pair         S/CPU     
       362   1              0.0023323615   0.0023090379   21.485548      20.000548      1.485          0              0            
      1000   0.90989032     0.0023323615  -0.0021940042   21.776974      20.425787      1.3511871      0.00036425437  77323.548    
      2000   0.86546688     0.0023323615   0.0034714157   21.677128      20.39191       1.2852183      0.0025814786   77783.3      
      3000   0.98199538     0.0023323615   0.0028144228   21.866132      20.407869      1.4582631      0.0011756043   74444.582    
      4000   1.004495       0.0023323615  -0.0014058211   21.945624      20.453949      1.4916751      0.011986179    74338.571    
      5000   1.1222705      0.0023323615   0.0044495116   21.986385      20.319813      1.6665718      0.0050317639   75082.301    
      6000   1.0538243      0.0023323615   0.0023957538   21.985713      20.420784      1.564929       0.012100514    75716.345    
      7000   1.0210598      0.0023323615  -0.00038820026  21.904665      20.388391      1.5162738      0              77375.623    
      8000   0.94819751     0.0023323615   0.0024943091   21.747889      20.339816      1.4080733      0              77193.825    
      9000   0.92364502     0.0023323615   0.0020053029   21.724166      20.352554      1.3716129      1.7780894e-05  76484.175    
     10000   0.86685188     0.0023323615   0.00078277366  21.644879      20.357604      1.287275       0.0098636418   76734.081    
     11000   1.0057103      0.0023323615   0.00010113276  21.8558        20.362321      1.4934798      0.020705341    76520.649    
     12000   0.97901664     0.0023323615  -0.0026996968   21.871206      20.417366      1.4538397      0.0052928539   76278.198    
     13000   0.97718436     0.0023323615  -6.1641422e-06  21.963706      20.512587      1.4511188      0.025022446    75994.962    
     14000   1.0530014      0.0023323615  -0.0009993112   21.947994      20.384287      1.5637071      0.0020860456   75159.421    
     15000   0.99094527     0.0023323615   0.0011068478   21.895146      20.423592      1.4715537      0.0015091113   76361.065    
     16000   0.91285091     0.0023323615  -0.00025424173  21.87524       20.519657      1.3555836      0.0047853639   75564.897    
     17000   0.82806978     0.0023323615  -0.00054698156  21.701984      20.472301      1.2296836      0              75927.21     
     18000   1.043278       0.0023323615  -6.6143919e-05  22.003299      20.454031      1.5492679      0.0034319132   77050.032    
     19000   1.0879249      0.0023323615  -0.0017804642   21.998985      20.383416      1.6155685      0.015376175    75610.753    
     20000   1.1144506      0.0023323615   0.0025198298   22.190904      20.535944      1.6549592      0              76627.977    
     21000   1.0427751      0.0023323615   0.0011345349   22.099492      20.550971      1.548521       0.00040047813  76881.248    
     22000   1.0586695      0.0023323615   0.0017882747   22.05673       20.484606      1.5721242      0              76614.744    
     23000   1.0058426      0.0023323615  -0.0055245362   21.954628      20.460951      1.4936763      0.0027619031   75874.111    
     24000   0.98273442     0.0023323615   0.0015147357   21.862067      20.402707      1.4593606      0              76065.208    
     25000   0.95835343     0.0023323615   0.0017808774   21.937761      20.514606      1.4231548      0.00020839942  75658.32     
     26000   0.93993778     0.0023323615  -0.0021777292   21.884849      20.489042      1.3958076      0.0088889834   75991.659    
     27000   0.9308188      0.0023323615  -0.00011239942  21.842252      20.459986      1.3822659      0.021612409    75282.838    
     28000   1.0149581      0.0023323615   0.0041996387   21.906846      20.399633      1.5072129      0.0064059022   76060.747    
     29000   0.92841138     0.0023323615  -2.5398808e-05  21.987185      20.608494      1.3786909      0.0046112484   75993.975    
     30000   1.021043       0.0023323615   0.001589158    22.097958      20.581709      1.5162489      0.016799508    73420.938    
     31000   1.0465985      0.0023323615  -0.0021744286   22.037917      20.483718      1.5541987      0.0057879149   76524.76     
     32000   0.98907108     0.0023323615  -0.0015558606   22.044089      20.575318      1.4687705      0.009448173    75933.736    
     33000   1.0918536      0.0023323615  -0.0025643847   22.039275      20.417873      1.6214025      0              75179.231    
     34000   0.99801543     0.0023323615   0.0016279766   21.932339      20.450286      1.4820529      0.017384617    77620.166    
     35000   1.0352271      0.0023323615  -0.0052971711   22.076004      20.538692      1.5373122      0.00010473809  76141.34     
     36000   1.1141579      0.0023323615  -0.00093279925  22.222491      20.567966      1.6545245      0.00033678641  77246.275    
     37000   1.0369415      0.0023323615   0.00013065175  22.217841      20.677983      1.5398581      0.013788831    76271.088    
     38000   1.0515596      0.0023323615   0.0021717558   22.070766      20.5092        1.561566       0.0067894678   76778.468    
     39000   1.0238495      0.0023323615   0.00026414509  22.040141      20.519725      1.5204165      0.00044464649  75773.19     
     40000   1.0749111      0.0023323615  -0.0026849368   22.039327      20.443084      1.596243       0.012651334    74212.714    
     41000   0.99070886     0.0023323615  -0.0030385564   22.03241       20.561207      1.4712027      0.00092855646  77459.868    
     42000   0.95315224     0.0023323615   0.0019788197   21.965263      20.549832      1.4154311      0.020233689    75651.669    
     43000   1.0644183      0.0023323615  -0.0011168725   22.287172      20.706511      1.5806611      0.039694129    75729.326    
     44000   1.0253747      0.0023323615  -0.006676522    22.066233      20.543552      1.5226814      0              75099.928    
     45000   0.94179556     0.0023323615  -0.0047206018   21.970644      20.572077      1.3985664      0.019869988    75371.519    
     46000   1.0083495      0.0023323615  -0.0017646918   21.972114      20.474715      1.497399       0.00026040605  75574.165    
     47000   0.98767959     0.0023323615  -0.00080218158  22.091674      20.62497       1.4667042      0.024266258    75445.352    
     48000   1.1473449      0.0023323615  -0.0025885687   22.080512      20.376705      1.7038072      0.00065962995  75857.904    
     49000   1.0679312      0.0023323615   0.0017688272   21.970482      20.384604      1.5858779      0.014142422    76875.917    
     50000   0.9581935      0.0023323615   0.0014398836   21.955202      20.532284      1.4229173      0.0055011948   76303.918    
     51000   1.0215759      0.0023323615  -0.00093292688  21.934681      20.41764       1.5170402      0              75978.356    
     52000   0.98079591     0.0023323615   0.0040701936   21.977374      20.520892      1.4564819      0.0020862422   76701.704    
     53000   1.0090927      0.0023323615   0.0013324753   22.095438      20.596935      1.4985027      0              76143.607    
     54000   0.97519627     0.0023323615   0.0013260734   22.070151      20.621984      1.4481665      0.026885444    77095.326    
     55000   1.1805087      0.0023323615  -0.001586238    22.424088      20.671033      1.7530554      0.024690954    76728.411    
     56000   0.98387121     0.0023323615   0.0037155145   22.104425      20.643376      1.4610487      0.01435493     76184.289    
     57000   1.0723812      0.0023323615  -0.0037916262   22.122726      20.53024       1.592486       0.013635549    76615.571    
     58000   1.0152349      0.0023323615   0.00021908047  22.082827      20.575203      1.5076238      0.00077375639  76661.232    
     59000   1.1424502      0.0023323615  -0.0052108657   22.30072       20.604182      1.6965385      0.013308184    77450.671    
     60000   1.0359703      0.0023323615  -0.00097887545  22.188218      20.649802      1.538416       0.00011346294  75680.977    
     61000   1.1646839      0.0023323615  -0.002085017    22.239945      20.51039       1.7295556      0.012918477    77775.061    
     62000   1.101836       0.0023323615   0.0010338878   22.171386      20.53516       1.6362265      0.001396566    76620.391    
     63000   0.96616435     0.0023323615   0.00097550571  21.903821      20.469067      1.4347541      0.013027663    77917.186    
     64000   1.0068907      0.0023323615  -0.0020278726   22.061652      20.566419      1.4952327      0.013750276    76601.926    
     65000   0.98723233     0.0023323615   0.0022441476   22.031073      20.565033      1.46604        0.0066686189   77142.28     
     66000   1.0273881      0.0023323615  -0.0003515278   22.183579      20.657908      1.5256713      0              74515.16     
     67000   0.96528212     0.0023323615  -0.00014822656  21.9396        20.506156      1.4334439      0.010365557    77190.483    
     68000   1.069702       0.0023323615   9.4754668e-05  22.081119      20.492611      1.5885075      0.00049153926  74357.121    
     69000   1.1229502      0.0023323615   0.0011504079   22.200329      20.532748      1.6675811      0.0068454249   77104.617    
     70000   1.0062775      0.0023323615  -0.00085311964  22.094021      20.599699      1.4943221      0.013222355    75665.373    
     71000   1.0906935      0.0023323615   0.00015260357  22.145362      20.525682      1.6196798      0.018338513    76446.393    
     72000   1.010401       0.0023323615  -6.0487182e-06  22.154105      20.653659      1.5004455      0.0013793953   75204.277    
     73000   1.1177599      0.0023323615  -0.0034084797   22.254435      20.594562      1.6598735      0.00011231735  78015.729    
     74000   0.9768019      0.0023323615   0.00016143893  22.07312       20.622569      1.4505508      0.0084515956   76008.034    
     75000   1.1360996      0.0023323615   0.002159116    22.161595      20.474487      1.6871079      0.0089909162   76629.333    
     76000   0.97379329     0.0023323615  -0.00068458621  21.988928      20.542845      1.446083       0              75516.187    
     77000   0.94876793     0.0023323615  -0.0016073976   21.923496      20.514575      1.4089204      0.017745108    76048.866    
     78000   0.83947996     0.0023323615  -0.00062768559  21.726727      20.480099      1.2466277      0.0054510099   76446.048    
     79000   1.0090614      0.0023323615  -0.00080262643  22.068192      20.569736      1.4984562      0.00023011166  77159.392    
     80000   1.1217643      0.0023323615  -0.0038177864   22.367902      20.702082      1.66582        0.032902439    76289.743    
     81000   1.0240158      0.0023323615   0.00023547123  22.031597      20.510933      1.5206635      0.0068767308   75633.497    
     82000   1.003236       0.0023323615  -0.0022802982   21.894199      20.404393      1.4898055      0.019136282    74994.467    
     83000   1.0554159      0.0023323615   0.004011718    22.104562      20.537269      1.5672927      0.0080869707   74841.348    
     84000   0.83527346     0.0023323615  -0.0034122221   21.874648      20.634267      1.2403811      0.0030083664   75995.135    
     85000   1.036002       0.0023323615   0.0013573923   21.962923      20.42446       1.5384629      0.015709144    76694.28     
     86000   0.9432002      0.0023323615  -0.0032183248   21.913588      20.512936      1.4006523      0.013730309    76609.391    
     87000   0.95566008     0.0023323615  -0.00049614223  21.91653       20.497375      1.4191552      0.0035862035   75662.905    
     88000   0.93373351     0.0023323615  -0.00097093893  21.870485      20.483891      1.3865943      0.0018212145   75395.546    
     89000   0.9684944      0.0023323615  -0.00047342045  21.973429      20.535215      1.4382142      0.00087524744  75461.948    
     90000   0.98293324     0.0023323615  -0.0032204602   22.050919      20.591263      1.4596559      0.015353933    76938.553    
     91000   1.0832827      0.0023323615   0.0048517083   22.11977       20.511095      1.6086749      0.0052867789   77930.636    
     92000   0.85899662     0.0023323615  -0.0013049519   21.765697      20.490087      1.27561        0.0024124001   76678.308    
     93000   0.96176266     0.0023323615  -4.4223672e-05  21.874222      20.446004      1.4282176      0.0045653365   77395.9      
     94000   0.96019503     0.0023323615   0.00024459347  21.944954      20.519064      1.4258896      3.8053462e-05  76972.197    
     95000   0.94702149     0.0023323615  -0.0033658915   21.86315       20.456823      1.4063269      0              77568.591    
     96000   0.91119348     0.0023323615  -0.0013197298   21.825018      20.471896      1.3531223      0.00043282989  76198.418    
     97000   1.0016687      0.0023323615  -0.0019514304   22.013024      20.525546      1.487478       0.0048369955   75322.378    
     98000   1.02143        0.0023323615  -0.0057874974   22.177965      20.661142      1.5168235      0              74514.604    
     99000   1.032786       0.0023323615   0.0018228259   21.975336      20.441649      1.5336871      7.1595851e-05  77768.389    
    100000   1.0594928      0.0023323615   0.0036169719   22.011024      20.437677      1.5733468      0.00032948157  76126.71     
    100362   1.1904942      0.0023323615  -0.00089755607  22.316856      20.548972      1.7678839      0.00063845255  75901.885    
Loop time of 1.31244 on 1 procs for 100000 steps with 100 atoms

Performance: 32915855.669 tau/day, 76194.110 timesteps/s
99.4% CPU use with 1 MPI tasks x 1 OpenMP threads

MPI task timing breakdown:
Section |  min time  |  avg time  |  max time  |%varavg| %total
---------------------------------------------------------------
Pair    | 0.049103   | 0.049103   | 0.049103   |   0.0 |  3.74
Bond    | 0.12545    | 0.12545    | 0.12545    |   0.0 |  9.56
Neigh   | 0.80157    | 0.80157    | 0.80157    |   0.0 | 61.07
Comm    | 0.054463   | 0.054463   | 0.054463   |   0.0 |  4.15
Output  | 0.0011192  | 0.0011192  | 0.0011192  |   0.0 |  0.09
Modify  | 0.24773    | 0.24773    | 0.24773    |   0.0 | 18.88
Other   |            | 0.033      |            |       |  2.51

Nlocal:            100 ave         100 max         100 min
Histogram: 1 0 0 0 0 0 0 0 0 0
Nghost:             60 ave          60 max          60 min
Histogram: 1 0 0 0 0 0 0 0 0 0
Neighs:             36 ave          36 max          36 min
Histogram: 1 0 0 0 0 0 0 0 0 0

Total # of neighbors = 36
Ave neighs/atom = 0.36
Ave special neighs/atom = 1.98
Neighbor list builds = 9821
Dangerous builds = 8265
unfix           nvtSoft
unfix           rampSoft
reset_timestep  0

write_data      ${outputfile_relaxed}
write_data      5_relaxed.data
System init for write_data ...
Generated 0 of 6 mixed pair_coeff terms from geometric mixing rule
WARNING: Communication cutoff 1.3 is shorter than a bond length based estimate of 1.7550000000000001. This may lead to errors. (src/comm.cpp:727)
WARNING: Not all mixed pair coeffs generated from mixing. Use write_data with 'pair ij' option to store all pair coeffs. (src/write_data.cpp:309)

###########################################################################
# Full LJ with Coulomb
######################################################################

# Cutoffs and parameters:
# - Values: Marcel Verkade's Bachelor Thesis
# - Mapping to atom groups: Patrick Onck's paper
# - 1: aliphatic, 2: aromatic, 3: anion, 4: cation
# pair_style	lj/cut/coul/cut <lj_cut_global> <coul_cut_global>
# pair_coeff	<type_1>  <type_2>  <eps>  <sigma>  <r_cut_lj>  <r_cut_coul>

# Problem: Onck's model is much more complex, and Marcel has no sigma reported
# Using sigma=1 randomly

variable		glob_ljeps equal 1.0
variable		glob_ljsig 	equal 1.0
variable		glob_coulcut equal 10.0
variable		att_ljcut equal 2.50
variable		rep_ljcut equal 1.12

pair_style		lj/cut/coul/cut 						${att_ljcut} 	${glob_coulcut}
pair_style		lj/cut/coul/cut 						2.5 	${glob_coulcut}
pair_style		lj/cut/coul/cut 						2.5 	10
pair_coeff		1 1 	${glob_ljeps} 	${glob_ljsig}	${att_ljcut} 	${glob_coulcut}
pair_coeff		1 1 	1 	${glob_ljsig}	${att_ljcut} 	${glob_coulcut}
pair_coeff		1 1 	1 	1	${att_ljcut} 	${glob_coulcut}
pair_coeff		1 1 	1 	1	2.5 	${glob_coulcut}
pair_coeff		1 1 	1 	1	2.5 	10
pair_coeff		1 2 	${glob_ljeps} 	${glob_ljsig}	${att_ljcut} 	${glob_coulcut}
pair_coeff		1 2 	1 	${glob_ljsig}	${att_ljcut} 	${glob_coulcut}
pair_coeff		1 2 	1 	1	${att_ljcut} 	${glob_coulcut}
pair_coeff		1 2 	1 	1	2.5 	${glob_coulcut}
pair_coeff		1 2 	1 	1	2.5 	10
pair_coeff		1 3 	${glob_ljeps} 	${glob_ljsig}	${rep_ljcut} 	${glob_coulcut}
pair_coeff		1 3 	1 	${glob_ljsig}	${rep_ljcut} 	${glob_coulcut}
pair_coeff		1 3 	1 	1	${rep_ljcut} 	${glob_coulcut}
pair_coeff		1 3 	1 	1	1.12 	${glob_coulcut}
pair_coeff		1 3 	1 	1	1.12 	10
pair_coeff		1 4 	${glob_ljeps} 	${glob_ljsig}	${rep_ljcut} 	${glob_coulcut}
pair_coeff		1 4 	1 	${glob_ljsig}	${rep_ljcut} 	${glob_coulcut}
pair_coeff		1 4 	1 	1	${rep_ljcut} 	${glob_coulcut}
pair_coeff		1 4 	1 	1	1.12 	${glob_coulcut}
pair_coeff		1 4 	1 	1	1.12 	10
pair_coeff		2 2 	${glob_ljeps} 	${glob_ljsig}	${att_ljcut} 	${glob_coulcut}
pair_coeff		2 2 	1 	${glob_ljsig}	${att_ljcut} 	${glob_coulcut}
pair_coeff		2 2 	1 	1	${att_ljcut} 	${glob_coulcut}
pair_coeff		2 2 	1 	1	2.5 	${glob_coulcut}
pair_coeff		2 2 	1 	1	2.5 	10
pair_coeff		2 3 	${glob_ljeps} 	${glob_ljsig}	${rep_ljcut} 	${glob_coulcut}
pair_coeff		2 3 	1 	${glob_ljsig}	${rep_ljcut} 	${glob_coulcut}
pair_coeff		2 3 	1 	1	${rep_ljcut} 	${glob_coulcut}
pair_coeff		2 3 	1 	1	1.12 	${glob_coulcut}
pair_coeff		2 3 	1 	1	1.12 	10
pair_coeff		2 4 	${glob_ljeps} 	${glob_ljsig}	${att_ljcut} 	${glob_coulcut}
pair_coeff		2 4 	1 	${glob_ljsig}	${att_ljcut} 	${glob_coulcut}
pair_coeff		2 4 	1 	1	${att_ljcut} 	${glob_coulcut}
pair_coeff		2 4 	1 	1	2.5 	${glob_coulcut}
pair_coeff		2 4 	1 	1	2.5 	10
pair_coeff		3 3 	${glob_ljeps} 	${glob_ljsig}	${rep_ljcut} 	${glob_coulcut}
pair_coeff		3 3 	1 	${glob_ljsig}	${rep_ljcut} 	${glob_coulcut}
pair_coeff		3 3 	1 	1	${rep_ljcut} 	${glob_coulcut}
pair_coeff		3 3 	1 	1	1.12 	${glob_coulcut}
pair_coeff		3 3 	1 	1	1.12 	10
pair_coeff		3 4 	${glob_ljeps} 	${glob_ljsig}	${att_ljcut} 	${glob_coulcut}
pair_coeff		3 4 	1 	${glob_ljsig}	${att_ljcut} 	${glob_coulcut}
pair_coeff		3 4 	1 	1	${att_ljcut} 	${glob_coulcut}
pair_coeff		3 4 	1 	1	2.5 	${glob_coulcut}
pair_coeff		3 4 	1 	1	2.5 	10
pair_coeff		4 4 	${glob_ljeps} 	${glob_ljsig}	${rep_ljcut} 	${glob_coulcut}
pair_coeff		4 4 	1 	${glob_ljsig}	${rep_ljcut} 	${glob_coulcut}
pair_coeff		4 4 	1 	1	${rep_ljcut} 	${glob_coulcut}
pair_coeff		4 4 	1 	1	1.12 	${glob_coulcut}
pair_coeff		4 4 	1 	1	1.12 	10


fix             noDriftRot 	all momentum 10 linear 1 1 1 angular
fix             nvt1 		all nvt temp ${Temp} ${Temp} 0.5
fix             nvt1 		all nvt temp 1 ${Temp} 0.5
fix             nvt1 		all nvt temp 1 1 0.5

# dump          assemble 	all custom 1000 				${outputfile_selfasb} id type xu yu zu vx vy vz
dump            lindump 	all custom ${subsample_rate} 	${outputfile_trajlin} id type xu yu zu vx vy vz
dump            lindump 	all custom 1000 	${outputfile_trajlin} id type xu yu zu vx vy vz
dump            lindump 	all custom 1000 	6_b_trajlin.data id type xu yu zu vx vy vz

run             ${runtime}
run             1000000
Generated 0 of 6 mixed pair_coeff terms from geometric mixing rule
Neighbor list info ...
  update every 1 steps, delay 10 steps, check yes
  max neighbors/atom: 2000, page size: 100000
  master list distance cutoff = 10.3
  ghost atom cutoff = 10.3
  binsize = 5.15, bins = 7 7 7
  1 neighbor lists, perpetual/occasional/extra = 1 0 0
  (1) pair lj/cut/coul/cut, perpetual
      attributes: half, newton on
      pair build: half/bin/newton
      stencil: half/bin/3d
      bin: standard
Per MPI rank memory allocation (min/avg/max) = 7.712 | 7.712 | 7.712 Mbytes
   Step          Temp         Density         Press          TotEng         PotEng         KinEng         E_pair         S/CPU     
         0   1.1904942      0.0023323615  -0.0015357065   21.915625      20.147741      1.7678839     -0.40059338     0            
      1000   0.8942732      0.0023323615   0.0010820721   21.155082      19.827086      1.3279957     -0.61913678     32416.38     
      2000   0.99959575     0.0023323615   0.0011490716   21.382084      19.897684      1.4843997     -0.60074145     30567.071    
      3000   1.0407209      0.0023323615   0.0015487692   20.820293      19.274822      1.5454706     -1.1740353      25297.017    
      4000   1.172          0.0023323615   0.0033014903   20.78998       19.04956       1.7404201     -1.3656084      20189.03     
      5000   0.93590739     0.0023323615  -0.0039546294   20.369941      18.980118      1.3898225     -1.5284252      17688.793    
      6000   1.0238911      0.0023323615   0.00033863523  20.244222      18.723743      1.5204782     -1.8310178      17617.43     
      7000   0.9763153      0.0023323615   0.0022432545   20.067528      18.6177        1.4498282     -1.8505777      17412.301    
      8000   1.1109745      0.0023323615  -0.00035022815  20.671016      19.021219      1.6497972     -1.6075281      17451.831    
      9000   1.0641979      0.0023323615   0.0058166863   20.44656       18.866226      1.580334      -1.7018008      17493.993    
     10000   1.1066433      0.0023323615   0.0038381166   20.579744      18.936379      1.6433653     -1.6139732      17416.142    
     11000   1.0487654      0.0023323615   0.0037008588   19.973188      18.415771      1.5574166     -2.1061703      17252.245    
     12000   0.97310322     0.0023323615   0.00045607114  20.179348      18.734289      1.4450583     -1.754701       17337.878    
     13000   1.1064635      0.0023323615  -0.0010506943   20.118702      18.475604      1.6430982     -2.0713944      17362.011    
     14000   1.0812727      0.0023323615   0.0058403896   20.238436      18.632746      1.6056899     -1.8413216      17520.22     
     15000   0.94464591     0.0023323615   0.0015092677   19.942792      18.539992      1.4027992     -1.8970876      17748.338    
     16000   0.9539087      0.0023323615   0.0047673698   20.210066      18.793511      1.4165544     -1.6987709      17214.7      
     17000   1.1552516      0.0023323615   0.00081895073  20.626194      18.910646      1.7155486     -1.8277579      16972.909    
     18000   1.0237937      0.0023323615   0.00094815275  20.008833      18.488499      1.5203337     -2.0187985      17357.563    
     19000   0.99969787     0.0023323615   0.00052522418  19.997634      18.513083      1.4845513     -1.9812582      17137.282    
     20000   1.0820179      0.0023323615   3.9196758e-05  19.983116      18.376319      1.6067966     -2.0846095      17266.83     
     21000   1.0041125      0.0023323615   0.00010774183  19.872202      18.381095      1.4911071     -2.148261       17165.404    
     22000   0.91152258     0.0023323615  -0.0027336905   19.867482      18.513871      1.353611      -1.9411763      17138.647    
     23000   1.0273245      0.0023323615   0.0014538152   20.182146      18.656569      1.5255769     -1.8460457      17253.96     
     24000   0.96589674     0.0023323615   0.0034927314   20.37764       18.943284      1.4343567     -1.6535029      17484.349    
     25000   0.97614594     0.0023323615  -0.0021830162   20.131338      18.681761      1.4495767     -1.796071       17441.212    
     26000   1.0549532      0.0023323615  -0.00062231122  20.209184      18.642578      1.5666055     -1.8686049      17306.046    
     27000   1.0106327      0.0023323615   0.0037544905   20.184832      18.684043      1.5007896     -1.8446535      17283.373    
     28000   0.84187953     0.0023323615  -0.0021493535   19.795749      18.545558      1.2501911     -2.033526       17313.079    
     29000   1.0357503      0.0023323615   0.0020234546   19.760245      18.222155      1.5380892     -2.205756       17258.673    
     30000   0.99918419     0.0023323615  -0.0041497605   20.14905       18.665262      1.4837885     -1.8357519      17265.343    
     31000   0.82322393     0.0023323615   0.0049290171   19.654826      18.432338      1.2224875     -2.140269       16885.268    
     32000   1.0559892      0.0023323615   0.0033029843   20.22217       18.654026      1.568144      -1.8667849      17130.796    
     33000   1.034351       0.0023323615  -0.0033903319   20.322115      18.786104      1.5360112     -1.716139       17619.171    
     34000   0.89948863     0.0023323615   0.0020296118   20.067062      18.731322      1.3357406     -1.7443322      17184.261    
     35000   0.99300127     0.0023323615   0.0015099995   19.964506      18.489899      1.4746069     -1.9619161      17181.798    
     36000   0.98253971     0.0023323615  -0.0018077159   20.28372       18.824649      1.4590715     -1.8282158      17296.659    
     37000   0.99389405     0.0023323615  -0.0026196915   20.149274      18.673342      1.4759327     -1.8287677      17337.604    
     38000   1.0275799      0.0023323615   0.0015997094   20.241497      18.715541      1.5259561     -1.9309041      17290.343    
     39000   0.99793967     0.0023323615  -0.00057882507  20.069423      18.587482      1.4819404     -1.9162284      17249.701    
     40000   1.0210584      0.0023323615   0.001349888    20.159309      18.643038      1.5162718     -1.8994973      17147.905    
     41000   1.0227701      0.0023323615  -0.0018377884   20.193652      18.674838      1.5188136     -1.8668989      17467.828    
     42000   1.1386287      0.0023323615   0.0018965342   20.353323      18.662459      1.6908636     -1.8422662      17136.114    
     43000   0.98078594     0.0023323615  -0.0017157266   20.304724      18.848257      1.4564671     -1.7699614      17252.373    
     44000   1.0363627      0.0023323615  -5.1334574e-05  20.008593      18.469594      1.5389986     -2.0202574      17149.958    
     45000   1.054282       0.0023323615  -0.0013081752   20.228602      18.662994      1.5656088     -1.8768036      17423.855    
     46000   1.0495594      0.0023323615   0.00048244723  20.038094      18.479498      1.5585957     -2.0152448      17090.64     
     47000   0.93051492     0.0023323615   0.0042420934   19.804352      18.422537      1.3818147     -2.2050028      17243.866    
     48000   1.025893       0.0023323615   0.0040713858   19.94634       18.422889      1.5234511     -2.0470685      17043.335    
     49000   0.92994044     0.0023323615  -0.0076412185   20.13953       18.758569      1.3809616     -1.8732201      17581.308    
     50000   0.99954299     0.0023323615  -0.0022782563   20.082665      18.598344      1.4843213     -1.9549954      17377.636    
     51000   1.0241355      0.0023323615   0.0013146523   20.038973      18.518132      1.5208413     -1.9982579      17274.845    
     52000   0.82419481     0.0023323615  -0.0017492946   19.471231      18.247301      1.2239293     -2.2573764      17463.938    
     53000   1.0915099      0.0023323615  -0.0019090273   20.098276      18.477384      1.6208922     -2.0762528      17521.348    
     54000   0.93531014     0.0023323615   0.0018297009   20.27684       18.887904      1.3889356     -1.7570067      17281.168    
     55000   1.0033549      0.0023323615   0.0037109622   20.105738      18.615756      1.4899821     -1.8108463      17379.085    
     56000   0.95182097     0.0023323615  -0.0016712814   19.636475      18.223021      1.4134541     -2.1983483      17183.602    
     57000   0.98122177     0.0023323615   0.00019640646  19.808426      18.351312      1.4571143     -2.0442942      17595.55     
     58000   0.98357984     0.0023323615   6.2458476e-05  20.10236       18.641744      1.4606161     -1.9079953      17476.276    
     59000   1.2587268      0.0023323615   0.0016534273   20.298311      18.429102      1.8692092     -2.0650851      17555.556    
     60000   1.1539394      0.0023323615  -0.0014281276   20.107538      18.393938      1.7136        -2.0348158      17497.016    
     61000   0.96095969     0.0023323615  -0.0058260757   20.0421        18.615075      1.4270251     -1.9854464      17506.435    
     62000   1.0196465      0.0023323615   0.0031350151   19.990344      18.476169      1.5141751     -1.9514265      17380.114    
     63000   0.93539261     0.0023323615  -0.0027977559   19.819171      18.430113      1.389058      -2.062536       17424.159    
     64000   0.90554322     0.0023323615  -0.0055186491   20.040748      18.696016      1.3447317     -1.8496017      17540.18     
     65000   1.0021656      0.0023323615  -0.0020999073   19.867151      18.378935      1.4882159     -2.1492963      17393.734    
     66000   0.84900368     0.0023323615   0.0024835021   19.851662      18.590892      1.2607705     -1.9294739      17339.227    
     67000   1.0436795      0.0023323615   0.0022547027   20.310122      18.760258      1.549864      -1.6593584      17583.198    
     68000   1.0656642      0.0023323615   0.00021618184  20.39542       18.812908      1.5825114     -1.6990027      17806.7      
     69000   1.0348211      0.0023323615   0.00040115752  20.43988       18.903171      1.5367094     -1.7487725      17362.277    
     70000   0.96979527     0.0023323615  -0.00063640763  20.101629      18.661483      1.440146      -1.96189        17423.538    
     71000   1.0457182      0.0023323615  -0.0018609089   19.914901      18.362009      1.5528916     -2.0086149      17170.09     
     72000   0.93058388     0.0023323615  -0.00085829525  20.147543      18.765625      1.3819171     -1.7950049      17586.637    
     73000   1.0216265      0.0023323615   0.0035231118   19.894046      18.376931      1.5171153     -2.0871168      17635.861    
     74000   1.0322227      0.0023323615   0.002547431    20.286087      18.753236      1.5328508     -1.8772909      17391.446    
     75000   1.0929206      0.0023323615  -0.002324762    20.412005      18.789017      1.6229871     -1.761052       17418.564    
     76000   0.88383178     0.0023323615  -0.0010649912   19.798943      18.486453      1.3124902     -2.0542074      17411.119    
     77000   1.0777297      0.0023323615   0.003785271    20.401863      18.801435      1.6004286     -1.7786694      17457.697    
     78000   0.98569506     0.0023323615   0.0033186236   20.313587      18.84983       1.4637572     -1.8225389      17409.052    
     79000   0.99328102     0.0023323615   0.0027796648   20.149716      18.674694      1.4750223     -1.8873123      17442.831    
     80000   0.93507381     0.0023323615  -0.00014895428  20.121071      18.732486      1.3885846     -1.865358       17542.631    
     81000   1.1415227      0.0023323615  -0.0024893055   20.442337      18.747176      1.6951612     -1.746857       17357.283    
     82000   0.92322234     0.0023323615  -0.00062304649  19.91595       18.544965      1.3709852     -1.9442567      17363.424    
     83000   0.94261383     0.0023323615   0.0012828685   19.709711      18.309929      1.3997815     -2.1132908      17318.826    
     84000   0.91502354     0.0023323615   0.0013393633   20.032031      18.673221      1.35881       -1.8643678      17151.888    
     85000   0.99968824     0.0023323615   0.002954004    20.056529      18.571992      1.484537      -1.9759974      17385.548    
     86000   0.95682084     0.0023323615  -0.00011459539  19.906199      18.48532       1.4208789     -1.9588988      17257.151    
     87000   0.94380469     0.0023323615  -0.00092240408  19.838136      18.436586      1.40155       -2.0802468      17161.431    
     88000   0.92086619     0.0023323615   0.0016372386   20.004021      18.636535      1.3674863     -1.9661279      17263.861    
     89000   0.9876979      0.0023323615  -6.5544937e-05  19.819221      18.35249       1.4667314     -2.1819296      17282.077    
     90000   0.92209433     0.0023323615   0.0012563451   19.828892      18.459582      1.3693101     -2.0445386      17229.091    
     91000   1.1853659      0.0023323615  -0.00013954092  20.206874      18.446606      1.7602684     -2.0650953      17373.174    
     92000   1.1047347      0.0023323615   0.0011003501   20.23184       18.591309      1.6405311     -1.845053       17211.271    
     93000   0.96752492     0.0023323615   0.0024394255   20.326582      18.889808      1.4367745     -1.7204723      17340.839    
     94000   1.024728       0.0023323615  -0.0023161082   20.081548      18.559827      1.5217211     -2.036521       17251.612    
     95000   0.99495551     0.0023323615   0.0021907115   19.833859      18.356351      1.4775089     -2.1752628      17309.116    
     96000   1.0379862      0.0023323615  -0.0016418677   20.495348      18.953938      1.5414095     -1.6980227      17357.932    
     97000   0.98254135     0.0023323615  -0.0011531091   20.273902      18.814828      1.4590739     -1.7015596      17688.003    
     98000   1.0900441      0.0023323615  -0.0016211691   20.299486      18.68077       1.6187155     -1.7541962      17469.901    
     99000   1.0252205      0.0023323615   0.0021500801   20.329267      18.806815      1.5224524     -1.7519978      17234.645    
    100000   0.95639013     0.0023323615  -0.0028572157   20.43337       19.013131      1.4202393     -1.6514659      17366.056    
    101000   0.98625728     0.0023323615  -0.0013055943   20.132681      18.668089      1.4645921     -1.8316781      17268.864    
    102000   0.88575194     0.0023323615   0.00091762897  20.067341      18.751999      1.3153416     -1.7528383      17631.948    
    103000   1.0291687      0.0023323615   0.0031738495   20.522476      18.994161      1.5283155     -1.6692168      17371.412    
    104000   0.95659679     0.0023323615  -0.00079694885  20.163303      18.742756      1.4205462     -1.8352915      17521.416    
    105000   0.93470594     0.0023323615   0.0011070318   20.280374      18.892335      1.3880383     -1.5701462      17527.453    
    106000   1.0602823      0.0023323615  -0.0015751386   20.30349       18.728971      1.5745192     -1.8657413      17203.819    
    107000   0.97627211     0.0023323615  -0.0052607538   20.047345      18.597581      1.4497641     -1.8792614      17085.561    
    108000   0.93251722     0.0023323615   6.8291416e-05  19.826768      18.44198       1.3847881     -2.0294021      17321.666    
    109000   1.0068361      0.0023323615   0.0010109636   20.297477      18.802325      1.4951517     -1.7778677      17213.213    
    110000   1.009524       0.0023323615  -0.0011747095   20.259113      18.75997       1.4991431     -1.740906       17288.264    
    111000   1.0290384      0.0023323615   0.0015484732   20.167155      18.639033      1.528122      -1.9045046      17372.717    
    112000   1.0257743      0.0023323615  -0.0015163167   20.219795      18.696521      1.5232748     -1.8923946      17303.829    
    113000   1.0861413      0.0023323615  -0.0015632482   20.267432      18.654512      1.6129199     -1.9475329      17212.841    
    114000   1.1473128      0.0023323615  -0.0011568968   20.186625      18.482866      1.7037594     -2.0422913      17181.73     
    115000   1.1001897      0.0023323615  -0.0012406594   20.170024      18.536242      1.6337818     -2.0056627      17051.74     
    116000   1.1462757      0.0023323615   0.0032883035   20.543433      18.841213      1.7022195     -1.7614205      17624.376    
    117000   1.0745388      0.0023323615  -0.0035635561   20.167433      18.571743      1.5956901     -1.8622495      17331.739    
    118000   1.0170584      0.0023323615  -0.0022484848   20.050645      18.540313      1.5103318     -1.9801729      17140.837    
    119000   1.0281045      0.0023323615   0.00071013252  19.952087      18.425352      1.5267352     -2.0783202      17171.919    
    120000   1.0454254      0.0023323615   0.0038178695   20.392067      18.83961       1.5524567     -1.7578483      17217.215    
    121000   1.0483493      0.0023323615  -0.00088823462  20.216893      18.660094      1.5567987     -1.8257049      17236.115    
    122000   1.071353       0.0023323615  -0.0050030757   20.621484      19.030525      1.5909592     -1.6644299      17396.557    
    123000   0.95519517     0.0023323615   0.0029959201   20.034969      18.616504      1.4184648     -1.8400426      17507.445    
    124000   1.0568053      0.0023323615   0.00010190655  20.390152      18.820797      1.5693558     -1.7008624      17103.892    
    125000   1.1464868      0.0023323615   0.0013614242   20.424423      18.72189       1.7025328     -1.7089174      17115.562    
    126000   0.82179016     0.0023323615   0.0044322381   19.631526      18.411168      1.2203584     -2.080963       17261.562    
    127000   1.0562879      0.0023323615   0.0045787957   20.139086      18.570498      1.5685876     -1.9618813      17594.052    
    128000   1.0101285      0.0023323615   0.00034420464  20.349664      18.849623      1.5000408     -1.6814419      17273.508    
    129000   1.0740962      0.0023323615  -0.00074473613  20.194067      18.599034      1.5950328     -1.9255643      17263.736    
    130000   1.1336652      0.0023323615  -0.0034921194   20.130639      18.447146      1.6834929     -2.0005955      17210.247    
    131000   1.2420738      0.0023323615   0.0036865689   20.357819      18.513339      1.8444796     -1.9777213      17301.591    
    132000   1.028571       0.0023323615  -0.0043798325   20.24641       18.718982      1.527428      -1.873521       17515.021    
    133000   1.0567118      0.0023323615  -0.0049931153   20.43884       18.869623      1.5692171     -1.8298193      17503.273    
    134000   1.1148642      0.0023323615   0.0029452912   20.395197      18.739623      1.6555733     -1.8582905      17414.167    
    135000   1.0582352      0.0023323615   0.00080571456  20.267312      18.695833      1.5714793     -1.756462       17438.134    
    136000   0.97463189     0.0023323615   0.0023580254   19.844337      18.397008      1.4473284     -1.9387227      17350.672    
    137000   1.0679215      0.0023323615  -0.0013650145   20.531126      18.945263      1.5858635     -1.6661354      17555.735    
    138000   1.0365837      0.0023323615   0.00040753057  20.330535      18.791208      1.5393268     -1.7122107      17695.617    
    139000   0.98881762     0.0023323615   0.001443929    20.106393      18.637999      1.4683942     -1.8413866      17283.487    
    140000   0.90225891     0.0023323615   0.0062706172   20.079568      18.739714      1.3398545     -1.8646925      17419.722    
    141000   0.9796182      0.0023323615   0.0032487022   19.976159      18.521426      1.454733      -1.9063932      17455.344    
    142000   0.99330851     0.0023323615   0.0016800325   20.062218      18.587155      1.4750631     -1.8404903      17650.072    
    143000   1.0564199      0.0023323615  -0.001416032    20.293721      18.724938      1.5687836     -1.8305122      17633.443    
    144000   0.87369618     0.0023323615  -0.0033161641   19.971844      18.674405      1.2974388     -1.9285477      17434.093    
    145000   0.88648641     0.0023323615  -0.0024577453   19.689444      18.373011      1.3164323     -2.173082       17603.224    
    146000   1.0274182      0.0023323615  -0.00098179036  20.187909      18.662193      1.525716      -1.7896336      17064.55     
    147000   0.96558507     0.0023323615  -0.00099676821  20.119078      18.685184      1.4338938     -1.8569404      17449.991    
    148000   1.1214551      0.0023323615   0.0041171621   20.313777      18.648417      1.6653609     -1.8768993      17120.057    
    149000   0.97595854     0.0023323615   0.002833817    20.006765      18.557467      1.4492984     -1.9422272      16933.726    
    150000   1.0530038      0.0023323615  -0.00055951285  20.039046      18.475336      1.5637107     -2.0234889      17350.886    
    151000   0.98427949     0.0023323615   0.0022524172   20.077658      18.616003      1.461655      -1.882203       17467.621    
    152000   1.0118506      0.0023323615   0.0032450335   20.192797      18.690199      1.5025981     -1.9496477      17394.929    
    153000   0.85973602     0.0023323615   0.0010367665   19.856905      18.580197      1.276708      -1.9094042      17233.603    
    154000   1.0322249      0.0023323615  -0.0011061      20.299906      18.767052      1.532854      -1.6609362      17341.779    
    155000   0.91750514     0.0023323615   0.00079963939  19.882872      18.520377      1.3624951     -1.8732647      17719.25     
    156000   0.80955496     0.0023323615  -0.00072016433  20.046885      18.844696      1.2021891     -1.8110207      17368.092    
    157000   0.90210559     0.0023323615   0.0003955816   19.897498      18.557872      1.3396268     -1.8792336      17450.577    
    158000   1.1139483      0.0023323615  -0.00018433675  20.286049      18.631836      1.6542133     -1.8772637      17476.074    
    159000   1.007672       0.0023323615   0.00076876649  20.132699      18.636306      1.4963929     -1.7564763      17180.07     
    160000   1.0302778      0.0023323615   0.0011802043   20.264301      18.734339      1.5299625     -1.7976085      17235.318    
    161000   1.1205061      0.0023323615  -0.0013042021   20.279192      18.615241      1.6639515     -1.9899407      17306.328    
    162000   0.88531753     0.0023323615  -0.0015469954   19.958163      18.643467      1.3146965     -2.0036059      17067.369    
    163000   1.0004867      0.0023323615   0.0022403514   20.245192      18.759469      1.4857228     -1.8021569      17396.138    
    164000   0.94447829     0.0023323615   0.0040371717   20.205893      18.803343      1.4025503     -1.7519137      17256.638    
    165000   0.99520128     0.0023323615  -0.00020315839  20.265369      18.787495      1.4778739     -1.7026067      17251.917    
    166000   0.96306939     0.0023323615  -0.005578662    20.217654      18.787496      1.430158      -1.8209613      17352.355    
    167000   0.88125626     0.0023323615  -0.0059687419   19.968864      18.660199      1.3086656     -1.8074104      17322.18     
    168000   1.006173       0.0023323615   0.0043513033   19.972287      18.47812       1.4941669     -1.9117241      17181.339    
    169000   0.8750063      0.0023323615  -0.00076484527  20.237467      18.938082      1.2993843     -1.6223378      17435.969    
    170000   0.91631588     0.0023323615   0.00018938711  20.264936      18.904207      1.3607291     -1.7219295      17329.946    
    171000   0.93750075     0.0023323615   5.941142e-05   20.145996      18.753807      1.3921886     -1.7564622      17457.612    
    172000   1.0959617      0.0023323615   0.00083937294  20.345479      18.717976      1.6275032     -1.7288023      17599.909    
    173000   1.043499       0.0023323615   0.00094067714  20.018613      18.469017      1.549596      -1.9629582      17074.615    
    174000   1.1010954      0.0023323615  -0.0015529682   20.213243      18.578116      1.6351266     -1.8476121      17066.444    
    175000   0.94394737     0.0023323615  -0.0022257767   20.095777      18.694015      1.4017618     -1.8117154      17321.702    
    176000   0.9232435      0.0023323615  -0.00058178454  19.997033      18.626016      1.3710166     -1.8234355      17427.852    
    177000   1.0802323      0.0023323615   0.0015943931   20.438728      18.834583      1.604145      -1.8502896      17481.881    
    178000   0.81429546     0.0023323615   0.0039759331   19.502304      18.293076      1.2092288     -2.132828       17254.204    
    179000   0.99560434     0.0023323615  -0.0013241048   19.956146      18.477674      1.4784724     -2.0014721      17613.105    
    180000   0.96624974     0.0023323615   0.0029787308   19.660576      18.225695      1.4348809     -2.2625007      17564.481    
    181000   1.1584787      0.0023323615   0.0027511137   20.272886      18.552545      1.7203408     -1.9076155      17328.069    
    182000   0.9325013      0.0023323615  -0.00070506188  19.702181      18.317416      1.3847644     -2.1852717      17475.973    
    183000   1.0308349      0.0023323615   0.0015590125   20.066862      18.536072      1.5307898     -1.9449577      17171.934    
    184000   0.913138       0.0023323615  -0.0016056182   20.229942      18.873933      1.3560099     -1.6642286      17673.08     
    185000   1.0878031      0.0023323615  -0.00047411037  20.560605      18.945217      1.6153876     -1.8003055      17347.545    
    186000   0.99503227     0.0023323615  -0.00177387     20.392226      18.914603      1.4776229     -1.6711068      17334.87     
    187000   1.0221947      0.0023323615  -0.002317042    20.291931      18.773972      1.5179592     -1.9047591      17682.545    
    188000   0.98256016     0.0023323615   0.0017417387   20.098743      18.639641      1.4591018     -1.9725555      17394.913    
    189000   1.055603       0.0023323615   0.0025360696   20.079561      18.511991      1.5675704     -1.9999881      17512.808    
    190000   1.2169         0.0023323615  -0.0046906594   20.581243      18.774147      1.8070964     -1.8968131      17376.18     
    191000   1.0201738      0.0023323615  -0.00031547534  20.004485      18.489526      1.5149581     -2.0338547      17380.147    
    192000   0.90923832     0.0023323615  -0.0022682025   19.885816      18.535597      1.3502189     -1.9875493      17259.356    
    193000   0.94799122     0.0023323615  -5.1856361e-05  19.774695      18.366928      1.407767      -2.0914422      17210.078    
    194000   0.88176744     0.0023323615   0.0011037957   19.696706      18.387281      1.3094246     -2.0576377      17480.521    
    195000   1.0077252      0.0023323615   0.00063171395  19.969352      18.47288       1.4964719     -2.0503052      17429.578    
    196000   0.90838852     0.0023323615  -0.0014721249   19.866824      18.517867      1.3489569     -1.9607519      17548.676    
    197000   1.1471136      0.0023323615  -0.0012072549   20.204312      18.500848      1.7034637     -2.0201619      17379.793    
    198000   0.88077135     0.0023323615   0.00010783048  19.69486       18.386915      1.3079455     -2.0932489      17321.804    
    199000   1.0988082      0.0023323615  -0.00032248453  20.54163       18.9099        1.6317302     -1.7005316      17304.606    
    200000   0.98136219     0.0023323615  -0.001997785    20.219579      18.762256      1.4573228     -1.7999964      17581.928    
    201000   1.0436461      0.0023323615   0.0011806772   20.079589      18.529775      1.5498144     -1.9954709      17182.309    
    202000   0.86613408     0.0023323615  -0.0042899039   19.751658      18.465449      1.2862091     -2.1164116      17443.672    
    203000   0.84174876     0.0023323615  -0.0017476836   19.824322      18.574325      1.2499969     -1.9258146      17221.02     
    204000   0.94968827     0.0023323615  -0.0024834463   20.045813      18.635526      1.4102871     -1.8918912      16982.444    
    205000   0.99902284     0.0023323615  -0.0034187109   20.102057      18.618508      1.4835489     -1.877261       17357.207    
    206000   0.97629936     0.0023323615  -0.00075262655  20.251621      18.801816      1.4498046     -1.6356449      17290.103    
    207000   0.9065532      0.0023323615   0.00018599311  19.773829      18.427597      1.3462315     -2.1420411      17295.139    
    208000   0.97366256     0.0023323615  -0.0023033326   20.162099      18.71621       1.4458889     -1.7910457      17315.122    
    209000   1.0709627      0.0023323615   0.0007385469   20.241078      18.650699      1.5903796     -1.8864561      17076.137    
    210000   1.1612002      0.0023323615   0.003392331    20.291807      18.567424      1.7243824     -1.8710095      17229.477    
    211000   0.92001542     0.0023323615  -0.0029128421   19.906953      18.54073       1.3662229     -1.9484021      17236.6      
    212000   1.1168677      0.0023323615   0.0027312507   20.429985      18.771437      1.6585485     -1.7009196      17241.498    
    213000   1.0355952      0.0023323615   0.00022959095  19.925539      18.38768       1.5378589     -2.1051804      17315.052    
    214000   0.88664961     0.0023323615  -0.0029705374   19.64688       18.330205      1.3166747     -2.1937279      17283.02     
    215000   0.93826007     0.0023323615  -0.00042271809  20.165076      18.77176       1.3933162     -1.725845       17287.121    
    216000   1.0166837      0.0023323615  -0.0030624624   20.09902       18.589245      1.5097752     -1.9588523      17161.252    
    217000   1.0066129      0.0023323615   0.0049193476   19.953349      18.458529      1.4948202     -1.9983749      17385.699    
    218000   1.022225       0.0023323615  -0.0023113789   20.057367      18.539363      1.5180042     -1.9820896      17432.056    
    219000   1.0505969      0.0023323615   0.0019243598   20.553166      18.99303       1.5601365     -1.5520905      17436.273    
    220000   0.9977258      0.0023323615  -0.00097658179  20.032473      18.55085       1.4816228     -1.9790376      17094.319    
    221000   0.9682307      0.0023323615   0.0054169353   19.729457      18.291634      1.4378226     -2.1946844      17245.144    
    222000   0.96066355     0.0023323615   0.00095336378  20.028149      18.601564      1.4265854     -1.9262315      17265.79     
    223000   0.86701567     0.0023323615  -0.0016414664   20.031866      18.744348      1.2875183     -1.7649948      17280.402    
    224000   1.1076431      0.0023323615   0.0027854295   20.48444       18.83959       1.6448501     -1.7906718      17102.345    
    225000   1.1243532      0.0023323615  -0.0010734784   20.384641      18.714977      1.6696644     -1.882111       17547.556    
    226000   0.97156152     0.0023323615   0.003459609    20.126541      18.683772      1.4427689     -1.8847741      17423.617    
    227000   0.86872211     0.0023323615   0.00019199581  20.024238      18.734185      1.2900523     -1.783258       17396.92     
    228000   1.1600178      0.0023323615   0.0016071863   20.526642      18.804015      1.7226264     -1.6796485      17306.79     
    229000   0.96527753     0.0023323615   0.0012209616   20.062021      18.628584      1.4334371     -1.8519929      17442.477    
    230000   0.97339043     0.0023323615   0.0025772973   20.234746      18.789262      1.4454848     -1.7737693      17250.336    
    231000   1.0074169      0.0023323615   0.0036849482   20.189641      18.693627      1.4960141     -1.9090339      17261.028    
    232000   0.86897261     0.0023323615  -0.0028170787   19.996737      18.706312      1.2904243     -1.9348416      17158.768    
    233000   1.0449946      0.0023323615   0.00025766605  20.171098      18.619281      1.551817      -1.8230392      17464.093    
    234000   1.1155858      0.0023323615   0.001718879    20.364146      18.707501      1.6566449     -1.8429788      17488.938    
    235000   0.86546181     0.0023323615   0.00038556327  20.01161       18.726399      1.2852108     -1.7425016      17587.892    
    236000   1.0487307      0.0023323615  -0.00077274449  20.420378      18.863013      1.5573651     -1.6844149      17515.411    
    237000   1.0888862      0.0023323615   0.0034434521   20.597505      18.980508      1.616996      -1.6689352      17433.706    
    238000   0.95044652     0.0023323615  -0.00089941834  20.185658      18.774245      1.4114131     -1.6373468      17724.719    
    239000   0.9001469      0.0023323615   0.00050437405  19.924279      18.587561      1.3367181     -1.7933044      17584.774    
    240000   0.88025734     0.0023323615  -0.0032516335   20.108234      18.801051      1.3071822     -1.762145       17412.216    
    241000   0.98990972     0.0023323615   0.0020693801   20.257489      18.787473      1.4700159     -1.7728086      17283.295    
    242000   0.91360524     0.0023323615   0.0013692665   19.970409      18.613705      1.3567038     -1.8011655      17216.086    
    243000   1.0279972      0.0023323615  -0.0020230208   20.177991      18.651415      1.5265758     -1.8608606      17095.681    
    244000   0.97483226     0.0023323615   0.0036344552   20.299889      18.852263      1.4476259     -1.703173       17316.906    
    245000   1.0671849      0.0023323615   0.00098488741  20.181143      18.596373      1.5847696     -1.8831931      17695.344    
    246000   0.94198503     0.0023323615   0.002653251    20.001177      18.602329      1.3988478     -2.0124574      17414.549    
    247000   1.0784171      0.0023323615   0.0018300523   20.121758      18.520309      1.6014494     -1.9930655      17321.624    
    248000   0.9484382      0.0023323615  -0.00050761719  19.962362      18.553931      1.4084307     -2.0407936      17260.795    
    249000   0.91910327     0.0023323615   0.0033635698   19.860377      18.495509      1.3648684     -1.9375037      17134.366    
    250000   1.0440281      0.0023323615   0.0039188557   20.422532      18.87215       1.5503817     -1.6870638      17363.291    
    251000   0.9043437      0.0023323615  -0.0021199573   20.098349      18.755399      1.3429504     -1.841368       17341.517    
    252000   1.0387236      0.0023323615   0.0017387154   20.402975      18.860471      1.5425045     -1.6939027      17469.054    
    253000   1.163344       0.0023323615  -0.0032281576   20.45898       18.731414      1.7275658     -1.7629071      17348.766    
    254000   1.1070276      0.0023323615   0.0052079588   20.398769      18.754833      1.6439361     -1.7716003      17389.355    
    255000   0.96512435     0.0023323615   0.00048929691  20.119606      18.686396      1.4332097     -1.9060505      17108.914    
    256000   0.9341661      0.0023323615   0.0044492813   20.017942      18.630705      1.3872367     -1.975008       17253.029    
    257000   1.0989761      0.0023323615  -0.0028562221   20.402267      18.770287      1.6319795     -1.7982681      17463.122    
    258000   1.0932183      0.0023323615   0.00017094913  20.560709      18.93728       1.6234292     -1.707157       17341.878    
    259000   1.0397499      0.0023323615   0.00030573171  20.130895      18.586867      1.5440287     -1.94677        17507.611    
    260000   1.1464097      0.0023323615   0.00064105795  20.402131      18.699713      1.7024184     -1.7446904      17403.336    
    261000   1.0018546      0.0023323615   0.005313361    20.018878      18.531124      1.4877541     -1.9437422      17334.373    
    262000   1.0950002      0.0023323615  -0.0026078746   20.449685      18.82361       1.6260753     -1.7599811      17504.863    
    263000   0.96498921     0.0023323615  -0.0042723218   20.023006      18.589997      1.433009      -1.8731734      17637.868    
    264000   1.0800252      0.0023323615  -0.0046942354   20.328544      18.724707      1.6038374     -1.8603406      17472.045    
    265000   1.0282586      0.0023323615  -0.0039069388   20.499308      18.972344      1.526964      -1.6973439      17465.634    
    266000   1.0352144      0.0023323615  -0.0036917835   19.799932      18.262639      1.5372933     -2.1397758      17164.43     
    267000   0.95430708     0.0023323615   0.0046486414   19.958165      18.541019      1.417146      -1.9362836      17381.291    
    268000   1.1138562      0.0023323615   0.0013459729   20.429119      18.775043      1.6540764     -1.6659456      17397.387    
    269000   0.8515876      0.0023323615  -0.0010004728   19.89149       18.626882      1.2646076     -1.7777588      17499.504    
    270000   1.0554814      0.0023323615  -0.0029700356   20.243104      18.675714      1.5673899     -1.7637208      17498.477    
    271000   1.1994638      0.0023323615   0.0010600595   20.310776      18.529572      1.7812037     -1.8428242      17739.985    
    272000   1.1429553      0.0023323615   0.0016847352   20.509777      18.812488      1.6972887     -1.7244368      17565.458    
    273000   1.0553132      0.0023323615   0.0048690836   20.310336      18.743196      1.5671402     -1.8311594      17621.644    
    274000   0.88514548     0.0023323615  -0.0016509865   19.990303      18.675862      1.314441      -1.8651782      17370.021    
    275000   1.0033388      0.0023323615   0.00109093     19.824954      18.334996      1.4899581     -1.9917438      17461.597    
    276000   1.0535251      0.0023323615   0.00051579173  20.303968      18.739483      1.5644848     -1.6922319      17282.23     
    277000   1.0801546      0.0023323615   0.00072154218  20.515683      18.911653      1.6040295     -1.6923328      17753.054    
    278000   1.0259356      0.0023323615   0.0032879954   20.301644      18.77813       1.5235143     -1.6610011      17644.771    
    279000   0.89083501     0.0023323615  -0.0002318493   20.235153      18.912263      1.32289       -1.5517539      17863.81     
    280000   1.0518633      0.0023323615  -6.9180324e-05  20.588016      19.025999      1.5620171     -1.4582937      17491.761    
    281000   1.1155522      0.0023323615  -0.00063094834  20.372387      18.715792      1.656595      -1.8037959      17240.566    
    282000   0.85464103     0.0023323615  -0.0012033438   19.862964      18.593822      1.2691419     -1.9748969      17407.199    
    283000   0.9545072      0.0023323615   0.0016141102   20.067114      18.64967       1.4174432     -1.7721629      17761.123    
    284000   0.92157503     0.0023323615   0.002402274    20.193535      18.824996      1.3685389     -1.7203963      17230.884    
    285000   1.0642068      0.0023323615   0.0010592684   20.26332       18.682973      1.5803471     -1.8573351      17401.166    
    286000   0.85694111     0.0023323615   0.0029156815   19.704129      18.431571      1.2725576     -2.1539799      17232.785    
    287000   0.9670048      0.0023323615  -0.00275366     19.695134      18.259132      1.4360021     -2.14098        17147.76     
    288000   0.89921959     0.0023323615   0.0050569617   19.897193      18.561852      1.3353411     -1.9328938      17410.394    
    289000   0.95560031     0.0023323615   0.0018140945   19.876305      18.457238      1.4190665     -2.0877094      17243.586    
    290000   0.99358749     0.0023323615   0.0023597234   19.937148      18.46167       1.4754774     -1.923879       17473.7      
    291000   0.94460573     0.0023323615   0.001936352    20.191627      18.788888      1.4027395     -1.7224116      17582.101    
    292000   1.0118594      0.0023323615  -0.0049759894   20.12891       18.626299      1.5026111     -1.9125376      17453.338    
    293000   1.0361871      0.0023323615  -0.0022709883   20.345167      18.806429      1.5387378     -1.8262834      17114.802    
    294000   1.1837397      0.0023323615  -0.0010900336   20.178457      18.420604      1.7578534     -1.9711049      16984.464    
    295000   1.1574359      0.0023323615   0.0012432872   20.245811      18.527018      1.7187923     -2.0706413      17199.876    
    296000   1.0278272      0.0023323615  -0.00033942471  20.067435      18.541111      1.5263233     -2.0174461      17110.961    
    297000   1.0422329      0.0023323615   0.00021991914  20.181806      18.634091      1.5477159     -1.8524074      17408.359    
    298000   1.0361229      0.0023323615  -0.0025230449   20.423226      18.884583      1.5386425     -1.732805       17427.572    
    299000   0.89101964     0.0023323615   0.00045747966  20.047342      18.724177      1.3231642     -1.7397779      17460.645    
    300000   1.0714521      0.0023323615  -0.0014091893   20.29218       18.701074      1.5911064     -1.9156009      17399.104    
    301000   0.85619182     0.0023323615  -0.0020035997   19.644409      18.372964      1.2714448     -2.1143046      17411.478    
    302000   0.88623588     0.0023323615   0.0028027416   19.968353      18.652293      1.3160603     -1.9245618      17580.627    
    303000   1.029479       0.0023323615   0.0022384948   20.207541      18.678765      1.5287763     -1.9134025      17564.586    
    304000   1.069683       0.0023323615   0.0051727161   20.460318      18.871839      1.5884792     -1.7116515      17449.612    
    305000   1.1278265      0.0023323615   0.00014865375  20.257869      18.583047      1.6748224     -1.908054       17346.909    
    306000   0.97434692     0.0023323615  -0.0059322766   20.187022      18.740117      1.4469052     -1.869112       17399.719    
    307000   0.89368136     0.0023323615   0.0010100539   19.770383      18.443266      1.3271168     -1.9850728      17423.277    
    308000   0.88904897     0.0023323615  -0.00086179542  19.948399      18.628161      1.3202377     -1.9869178      17356.881    
    309000   1.0478225      0.0023323615  -0.0017309378   20.31475       18.758734      1.5560164     -1.8981177      17377.681    
    310000   1.0053625      0.0023323615   0.0036334497   20.238457      18.745494      1.4929633     -1.8053372      17277.653    
    311000   0.92277289     0.0023323615  -0.0021618253   19.869682      18.499365      1.3703177     -1.9242444      17193.509    
    312000   1.0346657      0.0023323615  -0.0015275098   20.3127        18.776222      1.5364785     -1.7115201      17482.49     
    313000   1.0861237      0.0023323615   0.0026093152   20.417744      18.80485       1.6128938     -1.8134173      17226.643    
    314000   0.81721221     0.0023323615   0.00065099316  19.885891      18.672331      1.2135601     -1.7417307      17533.873    
    315000   1.0027353      0.0023323615   0.0022156392   20.077104      18.588042      1.4890618     -1.838442       17511.045    
    316000   1.0332113      0.0023323615  -0.0047428709   20.048928      18.51461       1.5343188     -1.9412975      17360.35     
    317000   0.88776632     0.0023323615   0.0040592898   19.775229      18.456896      1.318333      -1.9262334      17383.041    
    318000   0.98060907     0.0023323615   0.00042058409  20.178523      18.722319      1.4562045     -1.8444396      17533.37     
    319000   0.96542095     0.0023323615   0.0020229822   19.753395      18.319745      1.4336501     -2.2429958      17471.146    
    320000   1.0285253      0.0023323615   0.00058130749  20.312573      18.785213      1.5273601     -1.7819577      17399.183    
    321000   0.9600975      0.0023323615  -0.001570244    20.03566       18.609916      1.4257448     -2.0177978      17257.36     
    322000   0.93346181     0.0023323615  -0.0017042407   19.87185       18.485659      1.3861908     -2.0368271      17595.584    
    323000   1.0641771      0.0023323615   0.0041519097   20.407816      18.827513      1.5803031     -1.6836343      17169.189    
    324000   1.0738418      0.0023323615  -0.0025144768   20.11987       18.525214      1.594655      -1.9122823      17360.211    
    325000   0.90716195     0.0023323615   0.00010629735  20.123521      18.776386      1.3471355     -1.7218921      17566.518    
    326000   0.96231005     0.0023323615   0.0021120317   20.038715      18.609685      1.4290304     -1.8493411      17442.764    
    327000   0.893117       0.0023323615   0.0010339004   19.98393       18.657651      1.3262787     -1.8455272      17460.095    
    328000   0.96304501     0.0023323615   7.0918142e-05  20.057698      18.627576      1.4301218     -1.9475858      17352.672    
    329000   0.94048679     0.0023323615   0.0014884753   20.044689      18.648066      1.3966229     -1.8368918      17464.023    
    330000   1.0312955      0.0023323615   0.0026839749   20.199465      18.667991      1.5314738     -1.8104679      17516.874    
    331000   0.96036232     0.0023323615   0.00081829866  20.141356      18.715218      1.426138      -1.8267989      17238.053    
    332000   1.0246604      0.0023323615  -7.9138472e-05  20.379063      18.857443      1.5216206     -1.8126961      17478.672    
    333000   1.0087909      0.0023323615   0.0042475441   19.768689      18.270635      1.4980544     -2.1953203      17269.253    
    334000   0.93239058     0.0023323615  -0.0024988826   20.097345      18.712745      1.3846        -1.8504942      17253.312    
    335000   0.89013982     0.0023323615  -0.004300229    20.205352      18.883495      1.3218576     -1.7493906      17098.486    
    336000   1.0210308      0.0023323615   0.0033232663   19.906047      18.389816      1.5162307     -2.1212572      16915.24     
    337000   0.83883724     0.0023323615  -0.001293913    20.04047       18.794796      1.2456733     -1.7168309      16688.042    
    338000   0.99258484     0.0023323615  -0.00097631726  20.19598       18.721992      1.4739885     -1.8328554      17186.348    
    339000   1.0451382      0.0023323615  -0.0050978272   19.885155      18.333125      1.5520302     -2.1898276      17031.446    
    340000   1.0113171      0.0023323615  -0.00040886908  20.058066      18.55626       1.5018058     -1.9107863      16848.57     
    341000   0.9701514      0.0023323615   0.00015773913  20.221949      18.781274      1.4406748     -1.7435149      17477.163    
    342000   1.0623412      0.0023323615  -0.0025624925   20.189117      18.61154       1.5775767     -1.9053367      17214.1      
    343000   0.88054297     0.0023323615  -0.0051950783   20.060402      18.752796      1.3076063     -1.7516476      16931.713    
    344000   0.94924989     0.0023323615  -0.0013140205   19.876447      18.46681       1.4096361     -2.0214587      17054.779    
    345000   1.0782127      0.0023323615  -0.0023648815   20.270724      18.669578      1.6011459     -1.9770813      17176.446    
    346000   0.97624212     0.0023323615  -0.0002693491   19.827858      18.378138      1.4497195     -2.1168981      17354.461    
    347000   1.0923553      0.0023323615  -0.00017392671  20.197167      18.57502       1.6221477     -2.025911       17497.789    
    348000   0.78216936     0.0023323615  -0.0041612177   19.720469      18.558947      1.1615215     -1.9364271      17137.967    
    349000   1.2023389      0.0023323615  -0.0012338542   20.549845      18.764371      1.7854733     -1.6993987      17286.785    
    350000   1.0258306      0.0023323615   0.0014181088   20.173103      18.649744      1.5233585     -1.8114774      17307.906    
    351000   1.1382149      0.0023323615   0.0039024008   20.40975       18.719501      1.6902491     -1.9953543      17387.026    
    352000   1.0152904      0.0023323615  -0.0042992196   20.304147      18.796441      1.5077062     -1.8083374      17321.946    
    353000   1.0425577      0.0023323615  -0.00024532606  20.183769      18.635571      1.5481982     -1.89102        17146.909    
    354000   1.1138994      0.0023323615  -0.0020576059   20.27324       18.6191        1.6541407     -1.9058404      17232.69     
    355000   1.0518337      0.0023323615   0.0037224225   20.079614      18.517641      1.5619731     -2.0942044      17143.536    
    356000   1.0736848      0.0023323615  -0.002679913    20.145868      18.551446      1.5944219     -2.0085254      17176.419    
    357000   1.0315743      0.0023323615  -0.0022156833   20.051576      18.519689      1.5318878     -2.0134994      17266.242    
    358000   1.1964349      0.0023323615  -0.0067005936   20.43291       18.656204      1.7767058     -1.967911       17202.989    
    359000   1.1593015      0.0023323615  -0.0014755983   20.318845      18.597283      1.7215628     -1.9845769      17256.229    
    360000   0.88695139     0.0023323615   0.002312469    19.953111      18.635988      1.3171228     -1.83986        17312.29     
    361000   0.91879523     0.0023323615  -0.0013122528   19.93234       18.56793       1.3644109     -1.9972895      17217.8      
    362000   0.99481901     0.0023323615  -0.004054528    20.013314      18.536008      1.4773062     -2.1026588      17155.969    
    363000   1.0953031      0.0023323615  -0.0016853542   20.416874      18.790349      1.6265251     -1.7001206      17229.989    
    364000   0.78910938     0.0023323615  -0.0036572793   19.879005      18.707177      1.1718274     -1.6871369      17241.004    
    365000   0.97110558     0.0023323615   0.0022294806   20.040556      18.598464      1.4420918     -1.9002552      17132.669    
    366000   0.93310981     0.0023323615  -0.0037813888   20.269036      18.883368      1.3856681     -1.6343377      17467.792    
    367000   0.85855868     0.0023323615  -0.0013224522   20.096251      18.821291      1.2749596     -1.7396849      17286.172    
    368000   1.0348481      0.0023323615  -0.0011414742   19.952604      18.415855      1.5367494     -1.9599648      17470.892    
    369000   0.8893662      0.0023323615  -0.00011998362  19.924186      18.603478      1.3207088     -1.9731497      17495.731    
    370000   1.1719418      0.0023323615   0.0047641278   20.533194      18.79286       1.7403336     -1.7800436      17308.777    
    371000   1.1510149      0.0023323615  -0.00051698593  20.478622      18.769364      1.7092572     -1.926684       17452.648    
    372000   0.92376547     0.0023323615   0.0012644601   20.160459      18.788668      1.3717917     -1.7109867      17387.31     
    373000   1.1313295      0.0023323615   0.0024442782   20.080758      18.400734      1.6800243     -2.0619841      17373.573    
    374000   0.97132155     0.0023323615   0.00056494481  20.157794      18.715382      1.4424125     -1.8134936      17302.884    
    375000   1.1814561      0.0023323615  -0.0035494843   20.545412      18.790949      1.7544624     -1.7165652      17213.001    
    376000   0.98709964     0.0023323615  -0.0020931837   20.004369      18.538526      1.465843      -1.9047913      17538.938    
    377000   0.99712446     0.0023323615  -5.7647752e-05  20.02139       18.54066       1.4807298     -2.0422318      17316.278    
    378000   0.97334495     0.0023323615  -0.003820335    20.267838      18.822421      1.4454172     -1.7095772      17355.795    
    379000   1.0408903      0.0023323615   0.0032132714   20.55396       19.008238      1.545722      -1.5298673      17344.361    
    380000   0.90168314     0.0023323615   0.0015307189   20.091361      18.752362      1.3389995     -1.7024097      17355.095    
    381000   0.87379671     0.0023323615  -0.00047690657  20.098432      18.800844      1.2975881     -1.6685716      17254.771    
    382000   0.9906342      0.0023323615  -0.0035648193   20.234818      18.763727      1.4710918     -1.7014095      17344.916    
    383000   0.90867049     0.0023323615  -0.0029766772   19.981922      18.632547      1.3493757     -1.8405926      17122.706    
    384000   1.0955049      0.0023323615   0.0025764425   20.389216      18.762391      1.6268248     -1.8578978      17295.418    
    385000   1.0260766      0.0023323615   0.0020796717   20.324568      18.800844      1.5237238     -1.7147736      17022.938    
    386000   0.91508137     0.0023323615   0.001371778    19.894368      18.535472      1.3588958     -2.0059448      17056.673    
    387000   0.92890994     0.0023323615  -0.0012997569   19.961174      18.581742      1.3794313     -1.9667901      17293.92     
    388000   1.0604345      0.0023323615   0.0012131854   20.43447       18.859725      1.5747453     -1.6902576      17470.822    
    389000   1.0940431      0.0023323615  -0.0010027177   20.314129      18.689475      1.624654      -1.8095753      17407.883    
    390000   1.0397513      0.0023323615  -0.0037541002   20.149383      18.605352      1.5440307     -1.8597504      17509.908    
    391000   0.96816441     0.0023323615   0.00020833292  19.973398      18.535674      1.4377241     -2.0334198      17360.637    
    392000   0.96031408     0.0023323615  -0.0016292625   20.007936      18.58187       1.4260664     -1.8942856      17250.989    
    393000   0.95155985     0.0023323615   0.00057470718  19.801021      18.387955      1.4130664     -2.1195244      17212.761    
    394000   1.0602645      0.0023323615   0.0030816195   20.186827      18.612334      1.5744927     -1.9970395      17344.669    
    395000   0.94615074     0.0023323615  -0.00079380576  19.941616      18.536582      1.4050338     -1.9122944      17174.472    
    396000   1.0399483      0.0023323615   0.0031124835   20.248475      18.704151      1.5443233     -1.9134222      17470.305    
    397000   0.91902226     0.0023323615  -0.004068996    20.222306      18.857558      1.3647481     -1.7237824      17523.714    
    398000   1.0092088      0.0023323615   0.00016672223  20.188426      18.689751      1.4986751     -1.8092075      17459.612    
    399000   0.86140532     0.0023323615  -0.00013600623  20.1094        18.830213      1.2791869     -1.7233294      17305.551    
    400000   0.8741136      0.0023323615   0.0042396765   19.744284      18.446225      1.2980587     -2.0328493      17184.712    
    401000   1.0917322      0.0023323615  -0.002360704    20.295549      18.674327      1.6212223     -1.9700596      17383.64     
    402000   1.1046085      0.0023323615   0.00105315     19.983092      18.342748      1.6403436     -2.1075643      17409.71     
    403000   1.1328422      0.0023323615   0.0036225467   20.282296      18.600025      1.6822707     -2.0124676      17468.424    
    404000   0.90778674     0.0023323615   0.005773037    20.05525       18.707186      1.3480633     -1.7566995      17374.036    
    405000   0.87200951     0.0023323615  -0.0030909664   20.05462       18.759686      1.2949341     -1.8198143      17311.34     
    406000   0.89422349     0.0023323615   0.0030186107   20.003277      18.675356      1.3279219     -1.8657045      17469.687    
    407000   0.97601111     0.0023323615   0.00042477075  20.112337      18.662961      1.4493765     -1.9149145      17248.452    
    408000   0.92042894     0.0023323615   0.0013596739   20.075051      18.708214      1.366837      -1.8885361      17256.907    
    409000   1.0860936      0.0023323615   0.0046536293   20.560269      18.94742       1.612849      -1.7850086      17314.356    
    410000   0.96486983     0.0023323615   0.0037994803   20.150277      18.717446      1.4328317     -1.7621017      17393.27     
[...]
    861000   1.0695183      0.0023323615   0.00019163114  20.048148      18.459913      1.5882346     -1.9722132      17143.431    
    862000   0.93502477     0.0023323615   0.00095569847  20.170395      18.781883      1.3885118     -1.7170361      17463.886    
    863000   1.0438438      0.0023323615   0.0014345905   20.050118      18.50001       1.550108      -1.8917989      17032.582    
    864000   0.97579746     0.0023323615   0.0014009436   19.854665      18.405606      1.4490592     -2.0384813      17156.308    
    865000   0.99800752     0.0023323615   0.0020930466   20.171579      18.689538      1.4820412     -1.9636654      17424.131    
    866000   1.1075474      0.0023323615  -0.00069336736  20.257964      18.613256      1.6447079     -1.9229008      17190.705    
    867000   0.99167801     0.0023323615   0.0045491334   20.119661      18.647019      1.4726418     -1.9690847      17268.676    
    868000   0.99462268     0.0023323615  -0.003766861    20.367258      18.890243      1.4770147     -1.7406162      17013.223    
    869000   1.0089645      0.0023323615  -0.0038450504   20.201673      18.703361      1.4983122     -1.758199       17254.326    
    870000   0.86309698     0.0023323615   0.00065949671  19.844132      18.562433      1.281699      -1.9431767      17305.596    
    871000   0.98317422     0.0023323615   6.4259739e-05  19.941137      18.481124      1.4600137     -2.0496173      17435.186    
    872000   1.0433665      0.0023323615  -0.0014813919   19.904745      18.355345      1.5493992     -2.1697008      17137.929    
    873000   1.1447769      0.0023323615  -0.00016762148  20.472771      18.772777      1.6999937     -1.6944239      17193.773    
    874000   1.0631635      0.0023323615  -0.0039948165   20.413486      18.834688      1.5787978     -1.7277629      17189.689    
    875000   1.0582112      0.0023323615   7.0671552e-05  20.152308      18.580865      1.5714437     -1.9998017      17177.093    
    876000   0.90591854     0.0023323615  -0.0037413227   20.162451      18.817162      1.345289      -1.6269673      17396.017    
    877000   0.9843324      0.0023323615   0.0027830223   19.985397      18.523663      1.4617336     -1.8566692      17453.915    
    878000   1.0170602      0.0023323615  -0.00070897009  20.503318      18.992983      1.5103345     -1.6371106      17361.576    
    879000   1.0309293      0.0023323615  -0.0030171865   20.132823      18.601893      1.53093       -2.0014819      17187.123    
    880000   1.1236016      0.0023323615   0.0009916322   20.08337       18.414821      1.6685484     -1.9919192      17416.874    
    881000   0.88179499     0.0023323615   0.0023862192   19.899833      18.590368      1.3094656     -1.9849099      17365.273    
    882000   0.89501423     0.0023323615   0.0051418376   20.033737      18.704641      1.3290961     -1.843948       17234.157    
    883000   0.88745652     0.0023323615   0.0021005302   20.146904      18.829031      1.3178729     -1.6624988      17376.531    
    884000   1.050935       0.0023323615  -0.0030464567   20.499656      18.939017      1.5606384     -1.6229805      17182.857    
    885000   0.91927089     0.0023323615   0.0019590728   20.051838      18.68672       1.3651173     -1.8447206      16975.83     
    886000   0.8188893      0.0023323615   0.00060671721  19.90792       18.691869      1.2160506     -1.8122803      17233.702    
    887000   1.0772274      0.0023323615  -0.0014102734   20.22483       18.625147      1.5996827     -1.8547048      17092.364    
    888000   1.0277224      0.0023323615   0.00033041533  20.42419       18.898022      1.5261678     -1.7053742      17244.081    
    889000   1.0218146      0.0023323615  -0.0040254281   20.046808      18.529413      1.5173947     -1.9558606      17298.716    
    890000   1.0030373      0.0023323615   0.001879939    20.30277       18.81326       1.4895104     -1.8040655      17235.49     
    891000   1.0936244      0.0023323615  -0.0026276435   20.459534      18.835502      1.6240323     -1.6326312      17291.152    
    892000   0.98366437     0.0023323615   0.0010531033   20.114738      18.653996      1.4607416     -1.8757436      17209.761    
    893000   1.0964021      0.0023323615   0.00018611017  20.317466      18.689309      1.6281571     -1.827443       17124.7      
    894000   0.88748342     0.0023323615   0.0046161638   19.80255       18.484637      1.3179129     -1.9692054      17331.198    
    895000   0.94941434     0.0023323615   0.0042441374   20.081148      18.671268      1.4098803     -1.8801106      16981.95     
    896000   1.0774429      0.0023323615  -0.0012339024   20.263008      18.663005      1.6000026     -1.786781       17182.179    
    897000   0.97230226     0.0023323615  -0.0030942957   20.006023      18.562154      1.4438689     -1.9999943      17288.402    
    898000   0.91149103     0.0023323615   0.0029981695   20.10855       18.754986      1.3535642     -1.7535402      17084.114    
    899000   1.0309494      0.0023323615  -0.0013735557   20.04398       18.513021      1.5309598     -2.0018386      17299.27     
    900000   0.95844745     0.0023323615   0.00091502723  20.167918      18.744623      1.4232945     -1.7021912      17039.712    
    901000   1.0590547      0.0023323615   0.0021336309   20.101469      18.528773      1.5726963     -1.9121873      17218.26     
    902000   0.91039766     0.0023323615   0.00056948144  20.012568      18.660628      1.3519405     -1.8248262      17184.371    
    903000   1.0465579      0.0023323615  -0.0024118591   20.122195      18.568056      1.5541385     -2.0221899      16861.324    
    904000   1.1577861      0.0023323615   0.0015887476   20.292105      18.572793      1.7193123     -1.8726189      17124.339    
    905000   1.0867942      0.0023323615   0.0047943195   20.113811      18.499921      1.6138894     -1.8732943      17156.381    
    906000   1.0505392      0.0023323615  -0.00016497882  20.247295      18.687245      1.5600507     -1.9420889      17120.529    
    907000   0.99132561     0.0023323615  -0.0025019016   20.249424      18.777306      1.4721185     -1.8695484      16992.954    
    908000   1.0069792      0.0023323615   0.00065301413  20.032367      18.537003      1.4953641     -1.8975754      17039.389    
    909000   1.0220459      0.0023323615  -0.00145772     20.028239      18.510501      1.5177382     -1.8726476      16836.673    
    910000   0.97825806     0.0023323615   0.0026513737   20.171401      18.718687      1.4527132     -1.8342572      17325.38     
    911000   1.0792807      0.0023323615   0.00088215341  20.220829      18.618097      1.6027318     -1.8903         17270.364    
    912000   1.0311173      0.0023323615   0.0017627437   20.054085      18.522875      1.5312091     -1.9313345      17006.333    
    913000   0.90230083     0.0023323615   0.0043197449   19.827671      18.487754      1.3399167     -2.0918325      17142.421    
    914000   1.0761469      0.0023323615   0.00059317197  20.088587      18.490509      1.5980782     -1.9432278      17034.797    
    915000   1.1362554      0.0023323615   0.0010140402   20.255786      18.568446      1.6873392     -1.9346574      17177.173    
    916000   0.99178079     0.0023323615  -7.2828129e-05  19.851618      18.378824      1.4727945     -2.017451       17048.071    
    917000   1.0489547      0.0023323615  -0.0013581798   19.875015      18.317317      1.5576977     -2.1377703      17178.542    
    918000   0.96089233     0.0023323615   0.00091130108  19.935942      18.509017      1.4269251     -2.0238074      17125.403    
    919000   0.89833442     0.0023323615   0.0018742837   19.900977      18.566951      1.3340266     -1.9620241      17361.944    
    920000   1.0630486      0.0023323615  -0.0013567655   20.243101      18.664474      1.5786272     -1.8514653      17158.045    
    921000   0.97412012     0.0023323615   0.0021369206   20.051555      18.604987      1.4465684     -1.8538411      17079.796    
    922000   0.99265816     0.0023323615   0.0024694446   20.043857      18.56976       1.4740974     -1.961473       17285.501    
    923000   1.1549723      0.0023323615  -0.0020003428   20.395317      18.680183      1.7151339     -1.9052543      17431.66     
    924000   0.9936829      0.0023323615  -0.0046385962   20.081423      18.605804      1.4756191     -1.9405606      17123.975    
    925000   0.96065923     0.0023323615   0.0016534012   19.725675      18.299096      1.426579      -2.2000542      17215.27     
    926000   1.0871989      0.0023323615   0.00096380304  20.216174      18.601684      1.6144903     -1.9993984      17090.713    
    927000   1.0075494      0.0023323615   0.0009621965   20.20212       18.705909      1.4962108     -1.8522812      17186.596    
    928000   1.0820011      0.0023323615   0.0028272498   20.289296      18.682524      1.6067716     -1.8832265      17271.658    
    929000   0.94146185     0.0023323615   0.00039941041  20.102621      18.704551      1.3980708     -1.8684427      17385.751    
    930000   1.0568553      0.0023323615   0.0017295719   20.237702      18.668272      1.5694301     -1.8097126      17132.114    
    931000   0.93332252     0.0023323615   0.0034687366   20.057235      18.671251      1.3859839     -1.8281489      17383.677    
    932000   1.130764       0.0023323615   0.0011190263   20.188001      18.508817      1.6791845     -1.9789432      18238.279    
    933000   0.89069352     0.0023323615  -0.0023358271   19.713532      18.390852      1.3226799     -2.0108382      18704.482    
    934000   0.94428415     0.0023323615  -0.0032797138   20.085972      18.68371       1.402262      -1.847508       18354.945    
    935000   0.84895558     0.0023323615  -0.00051619598  19.868231      18.607532      1.260699      -1.9077445      19015.592    
    936000   1.0120723      0.0023323615   0.0018137461   20.228386      18.725459      1.5029274     -1.8067509      18775.297    
    937000   1.080503       0.0023323615  -0.00016049371  20.345508      18.740961      1.604547      -1.7444108      17743.091    
    938000   1.0317865      0.0023323615  -0.003508411    20.551945      19.019742      1.5322029     -1.5395916      17436.24     
    939000   0.94816797     0.0023323615   0.00013188856  20.17799       18.76996       1.4080294     -1.8307902      17568.831    
    940000   0.82551184     0.0023323615  -0.0003342756   19.715856      18.489971      1.2258851     -1.8736793      17758.651    
    941000   1.0540074      0.0023323615   0.002393548    19.990838      18.425637      1.565201      -2.1380555      17579.522    
    942000   1.0578066      0.0023323615  -0.004384766    20.462909      18.892066      1.5708428     -1.742407       17682.544    
    943000   0.97507998     0.0023323615   0.0035728367   20.155421      18.707428      1.4479938     -1.7360867      17717.976    
    944000   0.85001406     0.0023323615   0.00073608441  20.016527      18.754256      1.2622709     -1.7744501      18777.713    
    945000   0.87425485     0.0023323615   0.00049822019  19.86117       18.562901      1.2982684     -1.9554036      17735.818    
    946000   0.96163258     0.0023323615   0.0023692006   20.003032      18.575008      1.4280244     -1.8516876      18125.347    
    947000   1.1974838      0.0023323615   0.0017018406   20.567409      18.789146      1.7782635     -1.7217387      18091.702    
    948000   0.94308999     0.0023323615   0.001376695    19.917752      18.517263      1.4004886     -1.9773658      17836.522    
    949000   0.94185693     0.0023323615  -0.0034577955   20.297077      18.898419      1.3986575     -1.63902        18012.07     
    950000   0.86696777     0.0023323615  -0.00018504716  20.030222      18.742775      1.2874471     -1.6641736      18145.131    
    951000   1.0057273      0.0023323615  -0.0037718044   20.039385      18.54588       1.493505      -1.9575734      18817.096    
    952000   0.90110742     0.0023323615   0.0018008275   20.177358      18.839214      1.3381445     -1.7041357      18757.352    
    953000   0.99136648     0.0023323615  -0.00035867833  20.08176       18.609581      1.4721792     -1.7517989      18453.802    
    954000   1.1352003      0.0023323615   0.002357205    20.204282      18.518509      1.6857725     -1.9466468      18841.705    
    955000   0.94155815     0.0023323615   0.0040186658   19.988303      18.590089      1.3982139     -1.8107902      19068.763    
    956000   1.0742949      0.0023323615  -0.00084339565  20.299975      18.704647      1.595328      -1.7269565      19143.877    
    957000   0.99430318     0.0023323615  -0.0034722087   20.080926      18.604386      1.4765402     -1.8347269      18432.826    
    958000   0.98391147     0.0023323615  -0.00097967332  19.995151      18.534042      1.4611085     -1.9221775      17988.007    
    959000   1.0143941      0.0023323615   0.0031115916   20.362437      18.856062      1.5063753     -1.6759463      18079.377    
    960000   1.009155       0.0023323615  -0.001093352    20.039421      18.540825      1.4985951     -1.9413843      17929.367    
    961000   0.92761398     0.0023323615   0.0034342557   19.738868      18.361361      1.3775068     -2.0822999      17446.056    
    962000   1.0583926      0.0023323615   0.001034559    20.525664      18.953951      1.5717131     -1.7024161      17612.136    
    963000   0.99431386     0.0023323615  -0.0010506136   20.161715      18.685159      1.4765561     -1.8339154      17408.617    
    964000   0.8922583      0.0023323615  -0.0019542876   19.788294      18.46329       1.3250036     -1.973618       19002.773    
    965000   0.89087559     0.0023323615  -0.0014459743   19.866188      18.543238      1.3229502     -2.0660579      18690.948    
    966000   0.97058675     0.0023323615   0.0014389312   19.887948      18.446626      1.4413213     -2.0991289      18592.927    
    967000   1.0121364      0.0023323615  -0.0043733974   20.176902      18.67388       1.5030225     -1.9789205      18615.928    
    968000   0.93488485     0.0023323615  -0.00074970244  20.111082      18.722778      1.388304      -1.899846       18758.036    
    969000   0.88952064     0.0023323615  -0.0015790433   19.6736        18.352662      1.3209382     -2.1941789      18870.131    
    970000   1.0787538      0.0023323615  -0.0006068037   20.07619       18.474241      1.6019494     -2.0039196      18702.414    
    971000   1.1106701      0.0023323615   0.00070044027  20.288122      18.638777      1.6493451     -1.8005409      18717.379    
    972000   0.88260751     0.0023323615   0.0033705443   20.215033      18.904361      1.3106721     -1.6313504      19049.224    
    973000   1.0891024      0.0023323615  -0.00016945628  20.42674       18.809423      1.6173171     -1.7449781      19107.032    
    974000   0.95729119     0.0023323615   0.0020654067   20.106688      18.685111      1.4215774     -1.877054       19042.773    
    975000   1.0055174      0.0023323615  -0.0031252107   20.058352      18.565159      1.4931933     -1.8766514      18769.56     
    976000   0.996275       0.0023323615   0.0020327432   20.032297      18.552829      1.4794684     -1.8767858      18767.481    
    977000   0.95291717     0.0023323615  -0.00024490731  20.177574      18.762492      1.415082      -1.7958615      18790.648    
    978000   0.87769269     0.0023323615  -4.4379636e-05  19.866244      18.56287       1.3033737     -1.9119363      18676.51     
    979000   0.93537005     0.0023323615  -0.00017274305  20.145426      18.756401      1.3890245     -1.7952559      18704.093    
    980000   0.90521332     0.0023323615  -0.0026520631   20.003941      18.659699      1.3442418     -1.8239555      18716.256    
    981000   0.8981551      0.0023323615   0.0014858421   19.931328      18.597567      1.3337603     -1.990561       18710        
    982000   0.90049878     0.0023323615  -0.00050109542  20.111854      18.774613      1.3372407     -1.7520207      19167.553    
    983000   0.95311356     0.0023323615   0.00074490131  20.076791      18.661417      1.4153736     -1.7950344      18909.097    
    984000   1.0376431      0.0023323615  -0.0013977303   20.380427      18.839527      1.5409        -1.5963612      18921.748    
    985000   0.9837287      0.0023323615  -0.0020580766   20.180236      18.719398      1.4608371     -1.757634       19073.511    
    986000   1.0485764      0.0023323615   0.0021053284   20.021411      18.464275      1.557136      -2.1556634      18607.557    
    987000   1.0273358      0.0023323615   0.00024770015  19.838219      18.312626      1.5255937     -2.2360278      18739.86     
    988000   1.0720314      0.0023323615  -0.0010439571   20.071346      18.479379      1.5919666     -2.0032506      18493.745    
    989000   0.97967031     0.0023323615   0.0002709231   20.174815      18.720004      1.4548104     -1.892724       18481.302    
    990000   1.0706042      0.0023323615  -0.0023218613   20.09956       18.509713      1.5898473     -1.933657       18733.504    
    991000   0.89958752     0.0023323615  -0.0073725071   20.033766      18.697878      1.3358875     -1.8890712      18473.892    
    992000   0.99409989     0.0023323615   0.0025576056   20.268122      18.791884      1.4762383     -1.7289167      18616.567    
    993000   1.0710887      0.0023323615  -0.0022880034   20.266614      18.676047      1.5905668     -1.854485       18621.183    
    994000   1.1327185      0.0023323615  -0.0022450311   20.5644        18.882313      1.682087      -1.6881001      18504.786    
    995000   0.94512832     0.0023323615  -0.0021925783   20.037761      18.634245      1.4035156     -1.8196963      18695.534    
    996000   0.8419995      0.0023323615  -0.0011906502   19.934238      18.683869      1.2503693     -1.9004379      18367.892    
    997000   0.95552679     0.0023323615   0.0033676784   20.102795      18.683837      1.4189573     -1.8950248      18178.525    
    998000   0.98260152     0.0023323615  -0.0032514432   20.010132      18.550969      1.4591633     -1.9334686      18683.265    
    999000   1.1059033      0.0023323615  -0.0019439602   20.392256      18.749989      1.6422665     -1.7075056      18644.244    
   1000000   1.002358       0.0023323615  -0.0023836803   20.095423      18.606922      1.4885017     -1.904942       18505.256    
Loop time of 57.3448 on 1 procs for 1000000 steps with 100 atoms

Performance: 7533371.556 tau/day, 17438.360 timesteps/s
99.5% CPU use with 1 MPI tasks x 1 OpenMP threads

MPI task timing breakdown:
Section |  min time  |  avg time  |  max time  |%varavg| %total
---------------------------------------------------------------
Pair    | 48.446     | 48.446     | 48.446     |   0.0 | 84.48
Bond    | 1.2649     | 1.2649     | 1.2649     |   0.0 |  2.21
Neigh   | 3.7685     | 3.7685     | 3.7685     |   0.0 |  6.57
Comm    | 1.3526     | 1.3526     | 1.3526     |   0.0 |  2.36
Output  | 0.21202    | 0.21202    | 0.21202    |   0.0 |  0.37
Modify  | 1.9461     | 1.9461     | 1.9461     |   0.0 |  3.39
Other   |            | 0.3545     |            |       |  0.62

Nlocal:            100 ave         100 max         100 min
Histogram: 1 0 0 0 0 0 0 0 0 0
Nghost:            356 ave         356 max         356 min
Histogram: 1 0 0 0 0 0 0 0 0 0
Neighs:           4851 ave        4851 max        4851 min
Histogram: 1 0 0 0 0 0 0 0 0 0

Total # of neighbors = 4851
Ave neighs/atom = 48.51
Ave special neighs/atom = 1.98
Neighbor list builds = 97775
Dangerous builds = 79085

write_data      ${outputfile_assembled} nofix nocoeff
write_data      7_assembled.data nofix nocoeff
System init for write_data ...
Generated 0 of 6 mixed pair_coeff terms from geometric mixing rule

Total wall time: 0:00:58
