LAMMPS (23 Jun 2022 - Update 1)
OMP_NUM_THREADS environment is not set. Defaulting to 1 thread. (src/comm.cpp:98)
  using 1 OpenMP thread(s) per MPI task


variable        runtime equal 1000000
variable		subsample_rate equal 1000

variable		outputfile_created string '3_created.data'
variable		outputfile_relaxed string '5_relaxed.data'
variable		outputfile_selfasb string '6_a_self_assemble.lammpstrj'
variable		outputfile_trajlin string '6_b_trajlin.data'
variable		outputfile_assembled string '7_assembled.data'

units           lj
atom_style      full
dimension       3
boundary        p p p
timestep        0.005

read_data       ${outputfile_created}
read_data       3_created.data
Reading data file ...
  orthogonal box = (0 0 0) to (35 35 35)
  1 by 1 by 1 MPI processor grid
  reading atoms ...
  100 atoms
  reading velocities ...
  100 velocities
  scanning bonds ...
  1 = max bonds/atom
  reading bonds ...
  99 bonds
Finding 1-2 1-3 1-4 neighbors ...
  special bond factors lj:    0        0        0       
  special bond factors coul:  0        0        0       
     2 = max # of 1-2 neighbors
     2 = max # of 1-3 neighbors
     4 = max # of 1-4 neighbors
     6 = max # of special neighbors
  special bonds CPU = 0.000 seconds
  read_data CPU = 0.006 seconds

bond_style      fene
bond_coeff      * 30.0 1.5 1.0 1.0
special_bonds   fene
Finding 1-2 1-3 1-4 neighbors ...
  special bond factors lj:    0        1        1       
  special bond factors coul:  0        1        1       
     2 = max # of 1-2 neighbors
     6 = max # of special neighbors
  special bonds CPU = 0.000 seconds

variable        Temp equal 1.0
variable        velSeed equal 926458

velocity        all create ${Temp} ${velSeed}
velocity        all create 1 ${velSeed}
velocity        all create 1 926458

### Output
thermo_style    custom step temp density press etotal pe ke epair spcpu
thermo          1000

###########################################################################
# Soft relaxation (to remove overlaps of particles)
######################################################################

pair_style      soft 1.0
pair_coeff      * * 0.0
variable        prefactor equal ramp(0,300)
fix             rampSoft all adapt 1 pair soft a * * v_prefactor

minimize        0.0 1.0e-8 1000 100000
WARNING: Using 'neigh_modify every 1 delay 0 check yes' setting during minimization (src/min.cpp:187)
Generated 0 of 6 mixed pair_coeff terms from geometric mixing rule
Neighbor list info ...
  update every 1 steps, delay 0 steps, check yes
  max neighbors/atom: 2000, page size: 100000
  master list distance cutoff = 1.3
  ghost atom cutoff = 1.3
  binsize = 0.65, bins = 54 54 54
  1 neighbor lists, perpetual/occasional/extra = 1 0 0
  (1) pair soft, perpetual
      attributes: half, newton on
      pair build: half/bin/newton
      stencil: half/bin/3d
      bin: standard
WARNING: Communication cutoff 1.3 is shorter than a bond length based estimate of 1.7550000000000001. This may lead to errors. (src/comm.cpp:727)
Per MPI rank memory allocation (min/avg/max) = 8.346 | 8.346 | 8.346 Mbytes
   Step          Temp         Density         Press          TotEng         PotEng         KinEng         E_pair         S/CPU     
         0   1              0.0023323615  -0.0039617958   21.524174      20.039174      1.485          0              0            
       362   1              0.0023323615   0.0023090379   21.485548      20.000548      1.485          0              68189.939    
Loop time of 0.00531123 on 1 procs for 362 steps with 100 atoms

99.3% CPU use with 1 MPI tasks x 1 OpenMP threads

Minimization stats:
  Stopping criterion = force tolerance
  Energy initial, next-to-last, final = 
      20.0391741078675   20.0005480767337   20.0005480767337
  Force two-norm initial, final = 11.878422 7.9509778e-09
  Force max component initial, final = 6.6117807 1.3572772e-09
  Final line search alpha, max atom move = 1 1.3572772e-09
  Iterations, force evaluations = 362 738

MPI task timing breakdown:
Section |  min time  |  avg time  |  max time  |%varavg| %total
---------------------------------------------------------------
Pair    | 0.00021347 | 0.00021347 | 0.00021347 |   0.0 |  4.02
Bond    | 0.0023498  | 0.0023498  | 0.0023498  |   0.0 | 44.24
Neigh   | 0.0015785  | 0.0015785  | 0.0015785  |   0.0 | 29.72
Comm    | 0.00018397 | 0.00018397 | 0.00018397 |   0.0 |  3.46
Output  | 0          | 0          | 0          |   0.0 |  0.00
Modify  | 0          | 0          | 0          |   0.0 |  0.00
Other   |            | 0.0009854  |            |       | 18.55

Nlocal:            100 ave         100 max         100 min
Histogram: 1 0 0 0 0 0 0 0 0 0
Nghost:             20 ave          20 max          20 min
Histogram: 1 0 0 0 0 0 0 0 0 0
Neighs:              0 ave           0 max           0 min
Histogram: 1 0 0 0 0 0 0 0 0 0

Total # of neighbors = 0
Ave neighs/atom = 0
Ave special neighs/atom = 1.98
Neighbor list builds = 17
Dangerous builds = 0

fix             nvtSoft all nvt temp ${Temp} ${Temp} 0.5
fix             nvtSoft all nvt temp 1 ${Temp} 0.5
fix             nvtSoft all nvt temp 1 1 0.5
run             100000
Generated 0 of 6 mixed pair_coeff terms from geometric mixing rule
WARNING: Communication cutoff 1.3 is shorter than a bond length based estimate of 1.7550000000000001. This may lead to errors. (src/comm.cpp:727)
Per MPI rank memory allocation (min/avg/max) = 7.221 | 7.221 | 7.221 Mbytes
   Step          Temp         Density         Press          TotEng         PotEng         KinEng         E_pair         S/CPU     
       362   1              0.0023323615   0.0023090379   21.485548      20.000548      1.485          0              0            
      1000   0.90989032     0.0023323615  -0.0021940042   21.776974      20.425787      1.3511871      0.00036425437  73857.381    
      2000   0.86546688     0.0023323615   0.0034714157   21.677128      20.39191       1.2852183      0.0025814786   75423.444    
      3000   0.98199538     0.0023323615   0.0028144228   21.866132      20.407869      1.4582631      0.0011756043   73639.812    
      4000   1.004495       0.0023323615  -0.0014058211   21.945624      20.453949      1.4916751      0.011986179    73904.701    
      5000   1.1222705      0.0023323615   0.0044495116   21.986385      20.319813      1.6665718      0.0050317639   74823.159    
      6000   1.0538243      0.0023323615   0.0023957538   21.985713      20.420784      1.564929       0.012100514    75458.793    
      7000   1.0210598      0.0023323615  -0.00038820026  21.904665      20.388391      1.5162738      0              77126.537    
      8000   0.94819751     0.0023323615   0.0024943091   21.747889      20.339816      1.4080733      0              76499.821    
      9000   0.92364502     0.0023323615   0.0020053029   21.724166      20.352554      1.3716129      1.7780894e-05  76294.341    
     10000   0.86685188     0.0023323615   0.00078277366  21.644879      20.357604      1.287275       0.0098636418   75799.478    
     11000   1.0057103      0.0023323615   0.00010113276  21.8558        20.362321      1.4934798      0.020705341    76168.342    
     12000   0.97901664     0.0023323615  -0.0026996968   21.871206      20.417366      1.4538397      0.0052928539   76019.145    
     13000   0.97718436     0.0023323615  -6.1641422e-06  21.963706      20.512587      1.4511188      0.025022446    75659.339    
     14000   1.0530014      0.0023323615  -0.0009993112   21.947994      20.384287      1.5637071      0.0020860456   74987.185    
     15000   0.99094527     0.0023323615   0.0011068478   21.895146      20.423592      1.4715537      0.0015091113   76097.038    
     16000   0.91285091     0.0023323615  -0.00025424173  21.87524       20.519657      1.3555836      0.0047853639   75571.692    
     17000   0.82806978     0.0023323615  -0.00054698156  21.701984      20.472301      1.2296836      0              74211.756    
     18000   1.043278       0.0023323615  -6.6143919e-05  22.003299      20.454031      1.5492679      0.0034319132   73622.382    
     19000   1.0879249      0.0023323615  -0.0017804642   21.998985      20.383416      1.6155685      0.015376175    74992.707    
     20000   1.1144506      0.0023323615   0.0025198298   22.190904      20.535944      1.6549592      0              76423.088    
     21000   1.0427751      0.0023323615   0.0011345349   22.099492      20.550971      1.548521       0.00040047813  76565.076    
     22000   1.0586695      0.0023323615   0.0017882747   22.05673       20.484606      1.5721242      0              76412.734    
     23000   1.0058426      0.0023323615  -0.0055245362   21.954628      20.460951      1.4936763      0.0027619031   75428.064    
     24000   0.98273442     0.0023323615   0.0015147357   21.862067      20.402707      1.4593606      0              75580.563    
     25000   0.95835343     0.0023323615   0.0017808774   21.937761      20.514606      1.4231548      0.00020839942  75614.344    
     26000   0.93993778     0.0023323615  -0.0021777292   21.884849      20.489042      1.3958076      0.0088889834   74379.377    
     27000   0.9308188      0.0023323615  -0.00011239942  21.842252      20.459986      1.3822659      0.021612409    75214.346    
     28000   1.0149581      0.0023323615   0.0041996387   21.906846      20.399633      1.5072129      0.0064059022   75828.671    
     29000   0.92841138     0.0023323615  -2.5398808e-05  21.987185      20.608494      1.3786909      0.0046112484   75540.865    
     30000   1.021043       0.0023323615   0.001589158    22.097958      20.581709      1.5162489      0.016799508    73970.318    
     31000   1.0465985      0.0023323615  -0.0021744286   22.037917      20.483718      1.5541987      0.0057879149   76203.818    
     32000   0.98907108     0.0023323615  -0.0015558606   22.044089      20.575318      1.4687705      0.009448173    75539.724    
     33000   1.0918536      0.0023323615  -0.0025643847   22.039275      20.417873      1.6214025      0              74761.168    
     34000   0.99801543     0.0023323615   0.0016279766   21.932339      20.450286      1.4820529      0.017384617    76287.578    
     35000   1.0352271      0.0023323615  -0.0052971711   22.076004      20.538692      1.5373122      0.00010473809  75559.849    
     36000   1.1141579      0.0023323615  -0.00093279925  22.222491      20.567966      1.6545245      0.00033678641  75825.853    
     37000   1.0369415      0.0023323615   0.00013065175  22.217841      20.677983      1.5398581      0.013788831    75796.307    
     38000   1.0515596      0.0023323615   0.0021717558   22.070766      20.5092        1.561566       0.0067894678   76512.312    
     39000   1.0238495      0.0023323615   0.00026414509  22.040141      20.519725      1.5204165      0.00044464649  75382.604    
     40000   1.0749111      0.0023323615  -0.0026849368   22.039327      20.443084      1.596243       0.012651334    73948.067    
     41000   0.99070886     0.0023323615  -0.0030385564   22.03241       20.561207      1.4712027      0.00092855646  77126.174    
     42000   0.95315224     0.0023323615   0.0019788197   21.965263      20.549832      1.4154311      0.020233689    75638.411    
     43000   1.0644183      0.0023323615  -0.0011168725   22.287172      20.706511      1.5806611      0.039694129    75696.697    
     44000   1.0253747      0.0023323615  -0.006676522    22.066233      20.543552      1.5226814      0              72490.842    
     45000   0.94179556     0.0023323615  -0.0047206018   21.970644      20.572077      1.3985664      0.019869988    75198.028    
     46000   1.0083495      0.0023323615  -0.0017646918   21.972114      20.474715      1.497399       0.00026040605  75641.392    
     47000   0.98767959     0.0023323615  -0.00080218158  22.091674      20.62497       1.4667042      0.024266258    74622.611    
     48000   1.1473449      0.0023323615  -0.0025885687   22.080512      20.376705      1.7038072      0.00065962995  75751.613    
     49000   1.0679312      0.0023323615   0.0017688272   21.970482      20.384604      1.5858779      0.014142422    76417.528    
     50000   0.9581935      0.0023323615   0.0014398836   21.955202      20.532284      1.4229173      0.0055011948   75489.217    
     51000   1.0215759      0.0023323615  -0.00093292688  21.934681      20.41764       1.5170402      0              75829.309    
     52000   0.98079591     0.0023323615   0.0040701936   21.977374      20.520892      1.4564819      0.0020862422   73511.818    
     53000   1.0090927      0.0023323615   0.0013324753   22.095438      20.596935      1.4985027      0              74400.223    
     54000   0.97519627     0.0023323615   0.0013260734   22.070151      20.621984      1.4481665      0.026885444    76972.132    
     55000   1.1805087      0.0023323615  -0.001586238    22.424088      20.671033      1.7530554      0.024690954    76208.127    
     56000   0.98387121     0.0023323615   0.0037155145   22.104425      20.643376      1.4610487      0.01435493     75644.888    
     57000   1.0723812      0.0023323615  -0.0037916262   22.122726      20.53024       1.592486       0.013635549    76339.794    
     58000   1.0152349      0.0023323615   0.00021908047  22.082827      20.575203      1.5076238      0.00077375639  76113.748    
     59000   1.1424502      0.0023323615  -0.0052108657   22.30072       20.604182      1.6965385      0.013308184    76893.981    
     60000   1.0359703      0.0023323615  -0.00097887545  22.188218      20.649802      1.538416       0.00011346294  75691.294    
     61000   1.1646839      0.0023323615  -0.002085017    22.239945      20.51039       1.7295556      0.012918477    77383.114    
     62000   1.101836       0.0023323615   0.0010338878   22.171386      20.53516       1.6362265      0.001396566    74201.332    
     63000   0.96616435     0.0023323615   0.00097550571  21.903821      20.469067      1.4347541      0.013027663    77715.651    
     64000   1.0068907      0.0023323615  -0.0020278726   22.061652      20.566419      1.4952327      0.013750276    76244.449    
     65000   0.98723233     0.0023323615   0.0022441476   22.031073      20.565033      1.46604        0.0066686189   76833.306    
     66000   1.0273881      0.0023323615  -0.0003515278   22.183579      20.657908      1.5256713      0              75001.217    
     67000   0.96528212     0.0023323615  -0.00014822656  21.9396        20.506156      1.4334439      0.010365557    76787.907    
     68000   1.069702       0.0023323615   9.4754668e-05  22.081119      20.492611      1.5885075      0.00049153926  74020.724    
     69000   1.1229502      0.0023323615   0.0011504079   22.200329      20.532748      1.6675811      0.0068454249   76957.353    
     70000   1.0062775      0.0023323615  -0.00085311964  22.094021      20.599699      1.4943221      0.013222355    73081.813    
     71000   1.0906935      0.0023323615   0.00015260357  22.145362      20.525682      1.6196798      0.018338513    75276.972    
     72000   1.010401       0.0023323615  -6.0487182e-06  22.154105      20.653659      1.5004455      0.0013793953   74671.513    
     73000   1.1177599      0.0023323615  -0.0034084797   22.254435      20.594562      1.6598735      0.00011231735  77039.561    
     74000   0.9768019      0.0023323615   0.00016143893  22.07312       20.622569      1.4505508      0.0084515956   75446.764    
     75000   1.1360996      0.0023323615   0.002159116    22.161595      20.474487      1.6871079      0.0089909162   76497.006    
     76000   0.97379329     0.0023323615  -0.00068458621  21.988928      20.542845      1.446083       0              75507.434    
     77000   0.94876793     0.0023323615  -0.0016073976   21.923496      20.514575      1.4089204      0.017745108    75781.694    
     78000   0.83947996     0.0023323615  -0.00062768559  21.726727      20.480099      1.2466277      0.0054510099   76167.014    
     79000   1.0090614      0.0023323615  -0.00080262643  22.068192      20.569736      1.4984562      0.00023011166  74385.418    
     80000   1.1217643      0.0023323615  -0.0038177864   22.367902      20.702082      1.66582        0.032902439    75930.023    
     81000   1.0240158      0.0023323615   0.00023547123  22.031597      20.510933      1.5206635      0.0068767308   75660.833    
     82000   1.003236       0.0023323615  -0.0022802982   21.894199      20.404393      1.4898055      0.019136282    73971.686    
     83000   1.0554159      0.0023323615   0.004011718    22.104562      20.537269      1.5672927      0.0080869707   74686.431    
     84000   0.83527346     0.0023323615  -0.0034122221   21.874648      20.634267      1.2403811      0.0030083664   75755.292    
     85000   1.036002       0.0023323615   0.0013573923   21.962923      20.42446       1.5384629      0.015709144    76221.162    
     86000   0.9432002      0.0023323615  -0.0032183248   21.913588      20.512936      1.4006523      0.013730309    75247.347    
     87000   0.95566008     0.0023323615  -0.00049614223  21.91653       20.497375      1.4191552      0.0035862035   72200.399    
     88000   0.93373351     0.0023323615  -0.00097093893  21.870485      20.483891      1.3865943      0.0018212145   73531.201    
     89000   0.9684944      0.0023323615  -0.00047342045  21.973429      20.535215      1.4382142      0.00087524744  75522.98     
     90000   0.98293324     0.0023323615  -0.0032204602   22.050919      20.591263      1.4596559      0.015353933    76501.635    
     91000   1.0832827      0.0023323615   0.0048517083   22.11977       20.511095      1.6086749      0.0052867789   77378.856    
     92000   0.85899662     0.0023323615  -0.0013049519   21.765697      20.490087      1.27561        0.0024124001   76369.002    
     93000   0.96176266     0.0023323615  -4.4223672e-05  21.874222      20.446004      1.4282176      0.0045653365   77145.969    
     94000   0.96019503     0.0023323615   0.00024459347  21.944954      20.519064      1.4258896      3.8053462e-05  76419.928    
     95000   0.94702149     0.0023323615  -0.0033658915   21.86315       20.456823      1.4063269      0              74946.367    
     96000   0.91119348     0.0023323615  -0.0013197298   21.825018      20.471896      1.3531223      0.00043282989  75379.638    
     97000   1.0016687      0.0023323615  -0.0019514304   22.013024      20.525546      1.487478       0.0048369955   75276.066    
     98000   1.02143        0.0023323615  -0.0057874974   22.177965      20.661142      1.5168235      0              74434.065    
     99000   1.032786       0.0023323615   0.0018228259   21.975336      20.441649      1.5336871      7.1595851e-05  77450.851    
    100000   1.0594928      0.0023323615   0.0036169719   22.011024      20.437677      1.5733468      0.00032948157  75670.698    
    100362   1.1904942      0.0023323615  -0.00089755607  22.316856      20.548972      1.7678839      0.00063845255  75306.249    
Loop time of 1.32411 on 1 procs for 100000 steps with 100 atoms

Performance: 32625573.353 tau/day, 75522.161 timesteps/s
99.5% CPU use with 1 MPI tasks x 1 OpenMP threads

MPI task timing breakdown:
Section |  min time  |  avg time  |  max time  |%varavg| %total
---------------------------------------------------------------
Pair    | 0.049909   | 0.049909   | 0.049909   |   0.0 |  3.77
Bond    | 0.12652    | 0.12652    | 0.12652    |   0.0 |  9.55
Neigh   | 0.80452    | 0.80452    | 0.80452    |   0.0 | 60.76
Comm    | 0.054987   | 0.054987   | 0.054987   |   0.0 |  4.15
Output  | 0.0013496  | 0.0013496  | 0.0013496  |   0.0 |  0.10
Modify  | 0.25146    | 0.25146    | 0.25146    |   0.0 | 18.99
Other   |            | 0.03537    |            |       |  2.67

Nlocal:            100 ave         100 max         100 min
Histogram: 1 0 0 0 0 0 0 0 0 0
Nghost:             60 ave          60 max          60 min
Histogram: 1 0 0 0 0 0 0 0 0 0
Neighs:             36 ave          36 max          36 min
Histogram: 1 0 0 0 0 0 0 0 0 0

Total # of neighbors = 36
Ave neighs/atom = 0.36
Ave special neighs/atom = 1.98
Neighbor list builds = 9821
Dangerous builds = 8265
unfix           nvtSoft
unfix           rampSoft
reset_timestep  0

write_data      ${outputfile_relaxed}
write_data      5_relaxed.data
System init for write_data ...
Generated 0 of 6 mixed pair_coeff terms from geometric mixing rule
WARNING: Communication cutoff 1.3 is shorter than a bond length based estimate of 1.7550000000000001. This may lead to errors. (src/comm.cpp:727)
WARNING: Not all mixed pair coeffs generated from mixing. Use write_data with 'pair ij' option to store all pair coeffs. (src/write_data.cpp:309)

###########################################################################
# Full LJ with Coulomb
######################################################################

# Cutoffs and parameters:
# - Values: Marcel Verkade's Bachelor Thesis
# - Mapping to atom groups: Patrick Onck's paper
# - 1: aliphatic, 2: aromatic, 3: anion, 4: cation
# pair_style	lj/cut/coul/cut <lj_cut_global> <coul_cut_global>
# pair_coeff	<type_1>  <type_2>  <eps>  <sigma>  <r_cut_lj>  <r_cut_coul>

# Problem: Onck's model is much more complex, and Marcel has no sigma reported
# Using sigma=1 randomly

variable		glob_ljeps equal 1.0
variable		glob_ljsig 	equal 1.0
variable		glob_coulcut equal 10.0
variable		att_ljcut equal 2.50
variable		rep_ljcut equal 1.12

pair_style		lj/cut/coul/cut 						${att_ljcut} 	${glob_coulcut}
pair_style		lj/cut/coul/cut 						2.5 	${glob_coulcut}
pair_style		lj/cut/coul/cut 						2.5 	10
pair_coeff		1 1 	${glob_ljeps} 	${glob_ljsig}	${att_ljcut} 	${glob_coulcut}
pair_coeff		1 1 	1 	${glob_ljsig}	${att_ljcut} 	${glob_coulcut}
pair_coeff		1 1 	1 	1	${att_ljcut} 	${glob_coulcut}
pair_coeff		1 1 	1 	1	2.5 	${glob_coulcut}
pair_coeff		1 1 	1 	1	2.5 	10
pair_coeff		1 2 	${glob_ljeps} 	${glob_ljsig}	${att_ljcut} 	${glob_coulcut}
pair_coeff		1 2 	1 	${glob_ljsig}	${att_ljcut} 	${glob_coulcut}
pair_coeff		1 2 	1 	1	${att_ljcut} 	${glob_coulcut}
pair_coeff		1 2 	1 	1	2.5 	${glob_coulcut}
pair_coeff		1 2 	1 	1	2.5 	10
pair_coeff		1 3 	${glob_ljeps} 	${glob_ljsig}	${rep_ljcut} 	${glob_coulcut}
pair_coeff		1 3 	1 	${glob_ljsig}	${rep_ljcut} 	${glob_coulcut}
pair_coeff		1 3 	1 	1	${rep_ljcut} 	${glob_coulcut}
pair_coeff		1 3 	1 	1	1.12 	${glob_coulcut}
pair_coeff		1 3 	1 	1	1.12 	10
pair_coeff		1 4 	${glob_ljeps} 	${glob_ljsig}	${rep_ljcut} 	${glob_coulcut}
pair_coeff		1 4 	1 	${glob_ljsig}	${rep_ljcut} 	${glob_coulcut}
pair_coeff		1 4 	1 	1	${rep_ljcut} 	${glob_coulcut}
pair_coeff		1 4 	1 	1	1.12 	${glob_coulcut}
pair_coeff		1 4 	1 	1	1.12 	10
pair_coeff		2 2 	${glob_ljeps} 	${glob_ljsig}	${att_ljcut} 	${glob_coulcut}
pair_coeff		2 2 	1 	${glob_ljsig}	${att_ljcut} 	${glob_coulcut}
pair_coeff		2 2 	1 	1	${att_ljcut} 	${glob_coulcut}
pair_coeff		2 2 	1 	1	2.5 	${glob_coulcut}
pair_coeff		2 2 	1 	1	2.5 	10
pair_coeff		2 3 	${glob_ljeps} 	${glob_ljsig}	${rep_ljcut} 	${glob_coulcut}
pair_coeff		2 3 	1 	${glob_ljsig}	${rep_ljcut} 	${glob_coulcut}
pair_coeff		2 3 	1 	1	${rep_ljcut} 	${glob_coulcut}
pair_coeff		2 3 	1 	1	1.12 	${glob_coulcut}
pair_coeff		2 3 	1 	1	1.12 	10
pair_coeff		2 4 	${glob_ljeps} 	${glob_ljsig}	${att_ljcut} 	${glob_coulcut}
pair_coeff		2 4 	1 	${glob_ljsig}	${att_ljcut} 	${glob_coulcut}
pair_coeff		2 4 	1 	1	${att_ljcut} 	${glob_coulcut}
pair_coeff		2 4 	1 	1	2.5 	${glob_coulcut}
pair_coeff		2 4 	1 	1	2.5 	10
pair_coeff		3 3 	${glob_ljeps} 	${glob_ljsig}	${rep_ljcut} 	${glob_coulcut}
pair_coeff		3 3 	1 	${glob_ljsig}	${rep_ljcut} 	${glob_coulcut}
pair_coeff		3 3 	1 	1	${rep_ljcut} 	${glob_coulcut}
pair_coeff		3 3 	1 	1	1.12 	${glob_coulcut}
pair_coeff		3 3 	1 	1	1.12 	10
pair_coeff		3 4 	${glob_ljeps} 	${glob_ljsig}	${att_ljcut} 	${glob_coulcut}
pair_coeff		3 4 	1 	${glob_ljsig}	${att_ljcut} 	${glob_coulcut}
pair_coeff		3 4 	1 	1	${att_ljcut} 	${glob_coulcut}
pair_coeff		3 4 	1 	1	2.5 	${glob_coulcut}
pair_coeff		3 4 	1 	1	2.5 	10
pair_coeff		4 4 	${glob_ljeps} 	${glob_ljsig}	${rep_ljcut} 	${glob_coulcut}
pair_coeff		4 4 	1 	${glob_ljsig}	${rep_ljcut} 	${glob_coulcut}
pair_coeff		4 4 	1 	1	${rep_ljcut} 	${glob_coulcut}
pair_coeff		4 4 	1 	1	1.12 	${glob_coulcut}
pair_coeff		4 4 	1 	1	1.12 	10


fix             noDriftRot 	all momentum 10 linear 1 1 1 angular
fix             nvt1 		all nvt temp ${Temp} ${Temp} 0.5
fix             nvt1 		all nvt temp 1 ${Temp} 0.5
fix             nvt1 		all nvt temp 1 1 0.5

# dump          assemble 	all custom 1000 				${outputfile_selfasb} id type xu yu zu vx vy vz
dump            lindump 	all custom ${subsample_rate} 	${outputfile_trajlin} id type xu yu zu vx vy vz
dump            lindump 	all custom 1000 	${outputfile_trajlin} id type xu yu zu vx vy vz
dump            lindump 	all custom 1000 	6_b_trajlin.data id type xu yu zu vx vy vz

run             ${runtime}
run             1000000
Generated 0 of 6 mixed pair_coeff terms from geometric mixing rule
Neighbor list info ...
  update every 1 steps, delay 10 steps, check yes
  max neighbors/atom: 2000, page size: 100000
  master list distance cutoff = 10.3
  ghost atom cutoff = 10.3
  binsize = 5.15, bins = 7 7 7
  1 neighbor lists, perpetual/occasional/extra = 1 0 0
  (1) pair lj/cut/coul/cut, perpetual
      attributes: half, newton on
      pair build: half/bin/newton
      stencil: half/bin/3d
      bin: standard
Per MPI rank memory allocation (min/avg/max) = 7.712 | 7.712 | 7.712 Mbytes
   Step          Temp         Density         Press          TotEng         PotEng         KinEng         E_pair         S/CPU     
         0   1.1904942      0.0023323615  -0.0013760873   21.898662      20.130778      1.7678839     -0.41755615     0            
      1000   1.0325644      0.0023323615  -0.0013290146   21.469605      19.936247      1.5333581     -0.64463091     33234.593    
      2000   1.0673016      0.0023323615  -0.0023595033   21.28948       19.704537      1.5849428     -0.65264722     30183.488    
      3000   0.97094525     0.0023323615   0.00019245408  21.072729      19.630875      1.4418537     -0.8692783      26039.482    
      4000   0.97080892     0.0023323615  -0.00132767     20.831638      19.389987      1.4416512     -1.1305003      20701.599    
      5000   1.0586131      0.0023323615   0.00065853499  20.678253      19.106213      1.5720405     -1.3691286      18640.218    
      6000   1.0568728      0.0023323615  -0.00012305415  21.046897      19.477441      1.569456      -1.0254172      18609.958    
      7000   0.91960593     0.0023323615   6.4368428e-05  20.722457      19.356842      1.3656148     -1.0333328      18715.852    
      8000   1.0178776      0.0023323615   0.00026370927  20.926595      19.415047      1.5115483     -0.98465251     19583.086    
      9000   1.0336051      0.0023323615   0.00028091758  20.978669      19.443765      1.5349035     -1.0031906      19096.831    
     10000   0.97211199     0.0023323615   0.00071002711  20.637455      19.193869      1.4435863     -1.2673783      18776.349    
     11000   0.955442       0.0023323615   0.00067782365  20.605505      19.186673      1.4188314     -1.2199543      18696.041    
     12000   1.059963       0.0023323615  -0.0011118316   21.034702      19.460657      1.574045      -1.0899966      18572.327    
     13000   1.0449728      0.0023323615  -0.000253628    21.101558      19.549773      1.5517846     -0.98816859     18604.726    
     14000   0.99783928     0.0023323615   0.0022911224   20.777801      19.296009      1.4817913     -1.2411004      18933.474    
     15000   0.90840554     0.0023323615  -0.00089515     20.747192      19.39821       1.3489822     -1.2290884      18690.432    
     16000   0.89822838     0.0023323615  -0.0023569157   20.834634      19.500765      1.3338691     -1.120446       18679.372    
     17000   1.0659434      0.0023323615   0.0033702822   21.076111      19.493185      1.5829259     -0.98763188     18815.244    
     18000   1.0149726      0.0023323615   0.0042131864   21.068667      19.561433      1.5072343     -0.97648207     18736.218    
     19000   0.88890981     0.0023323615  -0.00047575198  20.96091       19.640879      1.3200311     -0.8451427      18912.53     
     20000   0.94761074     0.0023323615  -0.002387738    21.01879       19.611588      1.407202      -0.90616671     19383.521    
     21000   1.0329008      0.0023323615   0.00044531247  21.213177      19.67932       1.5338577     -0.92220205     19413.513    
     22000   1.0419262      0.0023323615  -0.0015157259   21.186461      19.639201      1.5472604     -0.97157799     19214.745    
     23000   1.0010385      0.0023323615  -0.001840048    20.673417      19.186875      1.4865422     -1.327659       18669.9      
     24000   1.0894256      0.0023323615   0.0019807464   21.192627      19.57483       1.617797      -1.0431857      18696.647    
     25000   1.0387136      0.0023323615  -0.0023271577   21.209737      19.667248      1.5424897     -0.86657331     18825.678    
     26000   0.95635006     0.0023323615   0.0034790932   20.714464      19.294285      1.4201798     -1.1739407      18662.656    
     27000   1.1854885      0.0023323615  -0.0027627928   21.326438      19.565988      1.7604504     -0.90973905     18461.176    
     28000   0.84138358     0.0023323615   0.0026992522   20.555325      19.305871      1.2494546     -1.2346196      18536.893    
     29000   0.98889295     0.0023323615  -0.0036527243   20.715739      19.247233      1.468506      -1.3397676      18579.59     
     30000   0.9252869      0.0023323615  -0.00057962355  20.786223      19.412172      1.374051      -1.0915849      18837.193    
     31000   0.91006624     0.0023323615  -0.0014994129   20.959821      19.608372      1.3514484     -1.0334753      18774.152    
     32000   1.0179724      0.0023323615   0.0034472539   20.918031      19.406342      1.511689      -1.0595158      18776.36     
     33000   0.90402322     0.0023323615  -0.0028417833   20.712083      19.369609      1.3424745     -1.2542854      18616.334    
     34000   0.92333412     0.0023323615  -0.004133603    21.00195       19.630799      1.3711512     -0.93926465     18605.815    
     35000   0.98504596     0.0023323615   0.00026804848  20.922966      19.460173      1.4627932     -1.1566394      18693.359    
     36000   1.0990702      0.0023323615   2.2645173e-05  21.425296      19.793177      1.6321192     -0.7410236      18938.885    
     37000   1.0231487      0.0023323615  -0.0030990019   21.059164      19.539788      1.5193758     -0.9484357      19304.527    
     38000   1.0239342      0.0023323615  -0.002304079    20.934147      19.413604      1.5205422     -1.0109125      19182.843    
     39000   0.97228697     0.0023323615  -0.00094918881  20.983403      19.539557      1.4438461     -0.89354455     18934.031    
     40000   1.0040216      0.0023323615  -0.0011913747   20.74056       19.249588      1.490972      -1.1406964      18745.356    
     41000   0.9595432      0.0023323615   0.00024612355  20.851308      19.426386      1.4249217     -1.1426873      18675.682    
     42000   1.045106       0.0023323615  -0.0020866124   20.784678      19.232696      1.5519824     -1.275541       18565.262    
     43000   0.9345334      0.0023323615   0.0010740575   20.693169      19.305387      1.3877821     -1.1602262      18706.647    
     44000   1.0791278      0.0023323615  -0.00072348926  20.815388      19.212884      1.6025048     -1.3708151      18505.776    
     45000   1.0517781      0.0023323615  -0.0011255079   20.795877      19.233986      1.5618905     -1.2661502      18294.259    
     46000   1.0596715      0.0023323615   0.004204186    20.723758      19.150145      1.5736122     -1.3427273      18432.246    
     47000   1.1550989      0.0023323615  -0.001580951    21.062051      19.346729      1.7153218     -1.23965        18623.566    
     48000   0.95375626     0.0023323615   0.0038078008   20.675638      19.25931       1.416328      -1.2991827      18536.394    
     49000   1.1834207      0.0023323615  -0.002073018    21.172392      19.415012      1.7573798     -1.1515823      18528.776    
     50000   1.1119714      0.0023323615   0.001041895    21.003507      19.35223       1.6512775     -1.2370934      18683.6      
     51000   0.87585108     0.0023323615   0.0050534578   20.718279      19.41764       1.3006389     -1.0112378      18744.139    
     52000   0.80142016     0.0023323615   0.0017227726   20.656843      19.466734      1.1901089     -1.0950158      18793.326    
     53000   0.96073621     0.0023323615  -0.0015019839   20.845381      19.418687      1.4266933     -1.0988362      18776.589    
     54000   1.0233963      0.0023323615  -0.0020749487   20.944291      19.424547      1.5197435     -1.1843022      18718.246    
     55000   1.1145105      0.0023323615  -0.00033607707  20.836641      19.181593      1.655048      -1.3244895      18799.652    
     56000   0.98161402     0.0023323615   0.0040175993   20.948744      19.491047      1.4576968     -1.0965709      18974.229    
     57000   1.0069607      0.0023323615   0.0036711618   20.907161      19.411824      1.4953367     -1.08822        18824.882    
     58000   1.0935715      0.0023323615  -0.0011834396   21.082463      19.45851       1.6239536     -1.1044223      18804.585    
     59000   1.04945        0.0023323615   0.00079271318  20.856575      19.298141      1.5584333     -1.183682       18736.57     
     60000   0.91458317     0.0023323615  -0.001611486    20.59903       19.240874      1.358156      -1.2727452      18650.113    
     61000   0.9637664      0.0023323615  -0.00058436238  20.944871      19.513678      1.4311931     -1.0232257      18705.943    
     62000   0.90847696     0.0023323615   0.00075686887  20.860544      19.511455      1.3490883     -0.96888862     18765.607    
     63000   0.91118495     0.0023323615  -0.0023602075   21.072087      19.718977      1.3531096     -0.91830987     19138.303    
     64000   1.1641729      0.0023323615   0.0013118296   21.136602      19.407805      1.7287968     -1.0392806      19048.458    
     65000   1.0093733      0.0023323615   0.004814373    20.947287      19.448368      1.4989194     -0.9856885      18743.463    
     66000   0.86910769     0.0023323615   0.00026219362  20.958347      19.667722      1.2906249     -0.90487376     18848.605    
     67000   1.110918       0.0023323615  -0.0024736187   20.950429      19.300716      1.6497133     -1.2246002      18619.216    
     68000   1.194641       0.0023323615  -0.00084104343  21.09642       19.322378      1.7740418     -1.1488054      18511.473    
     69000   1.0078436      0.0023323615   0.00045149109  20.922183      19.425535      1.4966477     -1.0362709      18575.317    
     70000   0.97425175     0.0023323615  -0.00021887257  20.807709      19.360945      1.4467638     -1.1571853      18467.933    
     71000   1.0608589      0.0023323615  -0.001513855    20.827548      19.252172      1.5753755     -1.2734763      18459.21     
     72000   1.0837273      0.0023323615  -0.0011306215   20.961947      19.352612      1.609335      -1.1782259      18509.163    
     73000   1.1191195      0.0023323615  -0.00063372131  21.039462      19.377569      1.6618925     -1.1178869      18639.724    
     74000   0.96375676     0.0023323615  -0.00043287332  21.012157      19.580978      1.4311788     -0.98950334     18746.357    
     75000   1.0605369      0.0023323615  -0.00076144469  20.929247      19.35435       1.5748973     -1.2498718      18899.191    
     76000   0.9590224      0.0023323615  -0.00047564015  20.711288      19.287139      1.4241483     -1.1793626      18617.82     
     77000   1.0059326      0.0023323615   0.0043437011   21.010555      19.516745      1.49381       -1.0864263      18593.774    
     78000   1.1446434      0.0023323615   0.0039013335   21.005613      19.305818      1.6997954     -1.170164       18670.773    
     79000   0.95985229     0.0023323615  -0.00073682462  20.854103      19.428723      1.4253806     -1.0414658      18640.782    
     80000   0.9918975      0.0023323615  -0.00079216741  20.724443      19.251476      1.4729678     -1.227814       18675.286    
     81000   0.99066305     0.0023323615   0.0019844076   21.04541       19.574275      1.4711346     -1.055978       18609.718    
     82000   0.83470585     0.0023323615  -0.0032858827   20.875815      19.636277      1.2395382     -1.0749058      18752.619    
     83000   0.90148031     0.0023323615  -0.0021187544   20.693659      19.35496       1.3386983     -1.2745498      18819.41     
     84000   1.0712626      0.0023323615   0.0027213838   20.980615      19.38979       1.5908249     -1.127781       18820.392    
     85000   0.99926925     0.0023323615  -0.00015673551  21.191905      19.707991      1.4839148     -0.84887767     18818.27     
     86000   0.88194506     0.0023323615  -0.00098697995  20.615025      19.305337      1.3096884     -1.1989462      18586.154    
     87000   1.0479431      0.0023323615  -0.00066907607  20.682618      19.126422      1.5561955     -1.3204801      18578.563    
     88000   1.1002506      0.0023323615   0.0011563159   21.155335      19.521463      1.6338722     -1.0178496      18761.438    
     89000   1.10677        0.0023323615   0.00056948015  20.997         19.353447      1.6435535     -1.1097684      18666.873    
     90000   1.0255246      0.0023323615   0.0063031176   21.011885      19.488981      1.522904      -1.0908785      18575.749    
     91000   0.96711698     0.0023323615   0.0011875411   20.991922      19.555753      1.4361687     -0.97749328     18770.731    
     92000   0.87982525     0.0023323615   0.0014748669   20.949837      19.643297      1.3065405     -0.92982538     19036.32     
     93000   0.87927443     0.0023323615  -0.0016348875   20.670257      19.364534      1.3057225     -1.0365463      18835.927    
     94000   0.95145715     0.0023323615  -0.00072278055  20.571403      19.158489      1.4129139     -1.3356457      18593.743    
     95000   0.95279509     0.0023323615  -0.0032667979   20.567793      19.152892      1.4149007     -1.3077493      18710.831    
     96000   0.99628605     0.0023323615   0.0033954226   20.788225      19.30874       1.4794848     -1.1912321      18692.617    
     97000   0.97102348     0.0023323615  -0.0010682463   20.830207      19.388237      1.4419699     -1.1433778      18693.041    
     98000   1.0323427      0.0023323615  -0.00046493792  20.729825      19.196796      1.5330289     -1.3284956      18767.947    
     99000   1.0025085      0.0023323615   0.00091625296  20.71548       19.226754      1.4887251     -1.1918166      18811.922    
    100000   1.1139367      0.0023323615   0.00058901078  21.030956      19.37676       1.654196      -1.0735185      18851.264    
    101000   0.9711767      0.0023323615  -0.00043678086  20.683036      19.240839      1.4421974     -1.2716588      18750.082    
    102000   0.94119988     0.0023323615   0.00022333779  20.59825       19.200568      1.3976818     -1.2946077      18618.796    
    103000   1.1435473      0.0023323615   0.0011454783   20.922264      19.224096      1.6981678     -1.2454833      18686.335    
    104000   0.95605431     0.0023323615  -0.00033177622  20.764246      19.344506      1.4197406     -1.1831938      18710.263    
    105000   0.95661614     0.0023323615  -0.0021847782   20.710618      19.290043      1.420575      -1.1435227      18760.034    
    106000   0.9291444      0.0023323615  -0.0045518204   20.554868      19.175089      1.3797794     -1.2982545      18713.543    
    107000   0.88855275     0.0023323615  -0.00080546726  20.623025      19.303524      1.3195008     -1.1845171      18713.213    
    108000   1.0734023      0.0023323615   0.00053731171  21.018341      19.424338      1.5940024     -1.0262672      18683.726    
    109000   1.0853699      0.0023323615   0.0034112172   21.017308      19.405533      1.6117743     -0.99658881     18706.977    
    110000   1.0938019      0.0023323615  -0.0060830912   21.18215       19.557854      1.6242958     -1.0541597      18896.697    
    111000   0.89392708     0.0023323615   0.002551827    20.77337       19.445888      1.3274817     -1.0227513      19624.917    
    112000   1.0191709      0.0023323615  -0.0032122547   20.890498      19.377029      1.5134687     -1.1252791      20458.627    
    113000   1.010435       0.0023323615   0.0026078165   20.938236      19.43774       1.5004959     -1.0215249      20710.775    
    114000   1.0880565      0.0023323615  -0.0026144338   21.167762      19.551998      1.615764      -1.007033       19941.169    
    115000   0.87420812     0.0023323615   0.0012902003   20.678621      19.380422      1.2981991     -1.2281461      19073.946    
    116000   0.99576344     0.0023323615  -0.00055597807  20.936359      19.45765       1.4787087     -1.0665027      18647.598    
    117000   1.0834713      0.0023323615   0.0020480855   20.692004      19.083049      1.6089549     -1.3430868      18630.553    
    118000   0.88499472     0.0023323615   0.00030018732  20.449803      19.135586      1.3142172     -1.3270942      18636.498    
    119000   0.9636274      0.0023323615  -0.0012205372   20.780221      19.349235      1.4309867     -1.0991802      18620.828    
    120000   0.97413322     0.0023323615  -0.0065569791   20.829415      19.382827      1.4465878     -1.251821       18587.704    
    121000   0.94977211     0.0023323615  -0.0030334478   20.677673      19.267261      1.4104116     -1.2932706      18627.517    
    122000   0.99633893     0.0023323615  -0.0016059929   20.818193      19.33863       1.4795633     -1.2052125      18612.65     
    123000   1.1393947      0.0023323615  -0.0011358194   20.944943      19.252942      1.6920012     -1.3771079      18552.188    
    124000   1.0145654      0.0023323615   0.00059419469  20.7291        19.22247       1.5066295     -1.216541       18573.768    
    125000   0.98306297     0.0023323615  -0.00064647091  20.908873      19.449025      1.4598485     -1.0964087      18694.077    
    126000   1.0419372      0.0023323615   0.00063862378  20.764251      19.216974      1.5472768     -1.1865474      18762.817    
    127000   0.88170128     0.0023323615  -0.0018850955   20.645661      19.336334      1.3093264     -1.2282854      18606.193    
    128000   0.99090203     0.0023323615   0.00038603543  20.72179       19.2503        1.4714895     -1.2841835      18617.49     
    129000   0.84857069     0.0023323615  -7.7856435e-05  20.355363      19.095236      1.2601275     -1.3638962      18569.759    
    130000   0.99304282     0.0023323615  -0.0013964657   20.811917      19.337248      1.4746686     -1.2439359      18493.357    
    131000   1.1070202      0.0023323615   0.0029612248   20.993636      19.349711      1.6439251     -1.1420833      18647.674    
    132000   1.0178636      0.0023323615   0.0020508299   20.835464      19.323937      1.5115274     -1.2111311      18545.841    
    133000   1.1195918      0.0023323615  -0.0066318725   21.235805      19.573211      1.6625938     -1.1478194      18704.246    
    134000   0.98986007     0.0023323615  -0.0011630657   20.838246      19.368303      1.4699422     -1.1063117      18756.41     
    135000   0.94018255     0.0023323615   0.0007983358   20.740408      19.344237      1.3961711     -1.1361151      18674.19     
    136000   1.0284949      0.0023323615  -0.00084680914  20.953823      19.426509      1.5273149     -1.0172081      18844.53     
    137000   0.98541845     0.0023323615   0.0022862191   20.725003      19.261656      1.4633464     -1.1868287      18850.904    
    138000   0.99521295     0.0023323615   0.0035349157   21.089111      19.61122       1.4778912     -0.95403946     18655.07     
    139000   0.9264989      0.0023323615   0.00017562387  20.797635      19.421784      1.3758509     -1.0489569      18717.709    
    140000   1.1393762      0.0023323615   0.00017599211  21.081998      19.390024      1.6919737     -1.1512676      18680.739    
    141000   0.86202807     0.0023323615   0.0015758823   20.763253      19.483141      1.2801117     -0.99250007     18740.9      
    142000   0.99430665     0.0023323615  -0.0016763132   20.862476      19.385931      1.4765454     -1.1556366      18757.873    
    143000   0.88811158     0.0023323615  -0.0012511116   20.855772      19.536926      1.3188457     -1.0458919      18742.178    
    144000   0.88721018     0.0023323615   0.0014236774   20.523192      19.205685      1.3175071     -1.331651       18751.065    
    145000   0.97559548     0.0023323615   0.0008326924   20.982805      19.534046      1.4487593     -1.0129225      18747.694    
    146000   1.0841277      0.0023323615   0.0022739448   21.178429      19.5685        1.6099297     -1.0054398      19159.037    
    147000   0.96914349     0.0023323615  -0.0041515335   20.912336      19.473158      1.4391781     -1.1445921      18970.283    
    148000   0.86892988     0.0023323615   0.0021430848   20.76214       19.471779      1.2903609     -0.98287003     18713.466    
    149000   1.0217769      0.0023323615  -0.0011705711   20.825833      19.308494      1.5173387     -1.2350191      18796.603    
    150000   0.98866292     0.0023323615   0.0017198312   20.791774      19.32361       1.4681644     -1.1999701      18801.507    
    151000   0.99700445     0.0023323615   0.0033117899   20.764479      19.283928      1.4805516     -1.2925471      18816.053    
    152000   1.0315543      0.0023323615   0.00088989326  20.862511      19.330653      1.5318581     -1.0639441      18893.538    
    153000   1.0788296      0.0023323615  -0.0021761743   21.253231      19.651169      1.6020619     -0.90232085     18890.642    
    154000   1.1543261      0.0023323615   0.0066782849   21.110023      19.395849      1.7141743     -1.2054593      18911.334    
    155000   0.97641303     0.0023323615  -0.00097766247  20.791285      19.341311      1.4499734     -1.1632386      18647.005    
    156000   0.97386593     0.0023323615  -0.00081116667  20.846231      19.40004       1.4461909     -1.2424668      18679.243    
    157000   0.98440494     0.0023323615   0.00062280289  21.026361      19.56452       1.4618413     -0.94985169     18630.285    
    158000   0.80703499     0.0023323615   0.0010197524   20.760295      19.561848      1.198447      -0.95144289     18694.952    
    159000   0.84844923     0.0023323615   0.0010771236   20.798893      19.538946      1.2599471     -1.0172893      18750.818    
    160000   1.0190581      0.0023323615  -0.00026116527  20.875417      19.362115      1.5133013     -1.1700791      18578.041    
    161000   0.98436604     0.0023323615  -0.0001257189   20.67665       19.214867      1.4617836     -1.2336793      18504.534    
    162000   0.851943       0.0023323615   0.0018320016   20.370367      19.105232      1.2651354     -1.4282846      18574.362    
    163000   1.011816       0.0023323615  -0.00027102374  20.613225      19.110679      1.5025468     -1.3818415      18499.41     
    164000   1.0190523      0.0023323615   0.00061953078  20.527642      19.014349      1.5132927     -1.3516264      18605.618    
    165000   1.0118494      0.0023323615  -0.0014360692   21.137181      19.634585      1.5025963     -0.87030217     18841.47     
    166000   1.1251621      0.0023323615   0.0020921559   21.536374      19.865508      1.6708657     -0.69918034     19328.262    
    167000   0.94022171     0.0023323615   0.00078418119  21.149395      19.753166      1.3962292     -0.80665567     19241.296    
    168000   0.88430682     0.0023323615   0.0032017495   20.960305      19.647109      1.3131956     -0.94137238     18928.318    
    169000   0.92562367     0.0023323615   0.001898743    20.829369      19.454818      1.3745512     -1.1577518      18934.904    
    170000   1.022419       0.0023323615  -0.00016816609  21.216527      19.698235      1.5182922     -0.86308141     18796.975    
    171000   0.97124166     0.0023323615  -0.0013249041   20.888517      19.446223      1.4422939     -1.0740317      18799.952    
    172000   1.0255945      0.0023323615  -0.0021906039   21.091759      19.568751      1.5230078     -1.0245664      18800.53     
    173000   0.79516036     0.0023323615  -0.003176801    20.366482      19.185669      1.1808131     -1.2656757      18705.743    
    174000   0.88269773     0.0023323615  -0.00015270807  20.775945      19.465139      1.3108061     -1.0821297      18761.336    
    175000   0.98716637     0.0023323615  -0.0012312352   20.969776      19.503834      1.4659421     -0.98859996     18897.996    
    176000   0.93961489     0.0023323615   0.00086498513  20.861752      19.466423      1.3953281     -1.0219792      18849.32     
    177000   0.91859853     0.0023323615  -0.0011005373   20.914358      19.550239      1.3641188     -0.92108805     18983.434    
    178000   0.92449304     0.0023323615  -6.6327527e-05  20.732193      19.359321      1.3728722     -1.0722948      19028.796    
    179000   0.94876424     0.0023323615   0.0065315353   20.960999      19.552084      1.4089149     -0.99153151     18841.581    
    180000   0.99727079     0.0023323615  -0.0036828651   21.131842      19.650895      1.4809471     -0.94415412     18909.216    
    181000   1.0209174      0.0023323615  -0.0034688299   21.315547      19.799485      1.5160624     -0.8238094      18836.006    
    182000   1.0579452      0.0023323615  -0.0015507321   21.054738      19.483689      1.5710486     -1.0562035      18821.315    
    183000   0.92998289     0.0023323615  -0.0013630795   20.866712      19.485687      1.3810246     -1.1301944      18793.651    
    184000   1.0894306      0.0023323615   0.0017478602   21.062972      19.445168      1.6178045     -1.118933       18898.966    
    185000   0.87447741     0.0023323615   0.0021504026   20.599943      19.301344      1.298599      -1.1602694      18566.443    
    186000   0.9626771      0.0023323615  -0.0015281347   20.823091      19.393516      1.4295755     -1.0814236      18670.044    
    187000   0.958991       0.0023323615  -0.0054901171   20.968509      19.544407      1.4241016     -1.1466063      18929.969    
    188000   0.94332123     0.0023323615   0.0039180236   20.628386      19.227554      1.400832      -1.2730383      18986.074    
    189000   0.92381971     0.0023323615   0.0011901866   20.861395      19.489523      1.3718723     -1.0567058      18773.94     
    190000   0.89041372     0.0023323615  -0.0036603813   20.917151      19.594886      1.3222644     -0.88567042     18637.855    
    191000   0.90654065     0.0023323615   0.00087889552  20.654461      19.308248      1.3462129     -1.1872095      18972.237    
    192000   1.0151916      0.0023323615   0.0010755387   21.005194      19.497634      1.5075595     -1.1022293      18718.888    
    193000   0.90162752     0.0023323615   0.0007228704   20.623188      19.284272      1.3389169     -1.1957627      18610.475    
    194000   1.2043559      0.0023323615  -0.0041886412   21.243374      19.454905      1.7884685     -1.0057986      18688.025    
    195000   1.0829905      0.0023323615  -0.0025405566   21.004247      19.396006      1.6082408     -1.1783183      18577.36     
    196000   1.1532254      0.0023323615   0.00076532804  21.059635      19.347095      1.7125397     -1.1870523      18633.165    
    197000   1.0422302      0.0023323615   0.00056439104  20.933139      19.385427      1.5477118     -1.0530395      18696.976    
    198000   0.93483777     0.0023323615   0.0022697565   20.798966      19.410732      1.3882341     -0.97650394     18776.773    
    199000   0.93811919     0.0023323615  -0.0021207967   21.040047      19.64694       1.393107      -0.89148767     18714.399    
    200000   1.0857533      0.0023323615   0.00326294     20.928624      19.316281      1.6123436     -1.1782908      18795.665    
    201000   0.95918853     0.0023323615   0.00025901337  20.88473       19.460335      1.424395      -1.1409695      18718.698    
    202000   0.95221188     0.0023323615   0.00051892615  20.83975       19.425715      1.4140346     -1.1666953      19239.275    
    203000   1.022351       0.0023323615   0.0048856224   20.994791      19.4766        1.5181913     -1.0073233      19888.874    
    204000   1.197002       0.0023323615   0.0012457279   21.07155       19.294002      1.777548      -1.238677       20137.738    
    205000   1.063744       0.0023323615  -0.0013553421   21.234299      19.654639      1.5796598     -0.8737686      21749.589    
    206000   0.95317732     0.0023323615  -0.0027245898   21.061726      19.646258      1.4154683     -0.88872747     23282.285    
    207000   1.0488128      0.0023323615  -0.0027875809   21.082068      19.52458       1.557487      -1.026561       22005.354    
    208000   1.0665302      0.0023323615  -0.0026757847   21.223743      19.639946      1.5837974     -0.9293137      19769.77     
    209000   0.96819677     0.0023323615   0.00021889117  20.581931      19.144159      1.4377722     -1.3004947      18896.214    
    210000   1.0477886      0.0023323615  -0.00019526134  20.8135        19.257534      1.5559661     -1.213525       18608.913    
    211000   1.0384147      0.0023323615  -0.0010821291   20.7441        19.202054      1.5420458     -1.3120085      18607.05     
    212000   0.98397125     0.0023323615   0.0020609981   20.657679      19.196481      1.4611973     -1.2025287      18760.496    
    213000   0.96402573     0.0023323615   0.0017548473   20.887975      19.456397      1.4315782     -1.0889803      18771.261    
    214000   1.0849748      0.0023323615   0.00075429469  20.882017      19.27083       1.6111876     -1.2827548      18771.769    
    215000   1.0414895      0.0023323615   0.00023785091  20.779469      19.232857      1.546612      -1.2192633      18615.059    
    216000   1.1201379      0.0023323615   0.0011686223   21.189674      19.52627       1.6634048     -1.0901772      18637.778    
    217000   0.87472176     0.0023323615   0.0014516842   20.589129      19.290167      1.2989618     -1.2632439      18737.85     
    218000   0.95898486     0.0023323615  -0.0033870969   21.012343      19.58825       1.4240925     -0.90804363     18768.737    
    219000   1.0194443      0.0023323615   0.00067805491  21.00426       19.490386      1.5138747     -1.0449383      19382.313    
    220000   1.0669007      0.0023323615   0.0028912656   21.356553      19.772205      1.5843476     -0.84317579     19690.396    
    221000   1.0566761      0.0023323615   0.0056979291   21.288905      19.719741      1.569164      -0.86421426     20350.561    
    222000   1.0731862      0.0023323615  -0.0017345349   21.094786      19.501104      1.5936815     -1.0034249      20237.195    
    223000   0.94837418     0.0023323615  -0.0028315336   21.017559      19.609223      1.4083357     -0.91694794     19700.998    
    224000   0.97439566     0.0023323615   4.16484e-05    20.957726      19.510748      1.4469776     -0.89665221     19073.676    
    225000   1.0249362      0.0023323615  -0.0022778016   20.925497      19.403467      1.5220303     -1.0431504      19080.042    
    226000   1.01118        0.0023323615  -0.003312711    20.896079      19.394476      1.5016023     -1.146043       18726.966    
    227000   1.010132       0.0023323615   0.0015938611   20.739761      19.239715      1.5000461     -1.1459638      18561.717    
    228000   0.96840011     0.0023323615  -0.003000787    21.084521      19.646447      1.4380742     -0.95959929     18623.204    
    229000   1.017371       0.0023323615   0.0028463631   21.052364      19.541568      1.5107959     -0.93995023     18720.348    
    230000   0.91180828     0.0023323615  -0.00038688989  20.804582      19.450547      1.3540353     -1.0610597      18764.157    
    231000   1.0336269      0.0023323615   0.0026092668   20.775859      19.240923      1.534936      -1.232992       18711.834    
    232000   1.0981306      0.0023323615   0.0003180882   21.038919      19.408195      1.6307239     -1.0708862      18640.096    
    233000   1.0118643      0.0023323615   0.00046246361  20.902473      19.399855      1.5026185     -1.1874402      18578.37     
    234000   0.94221643     0.0023323615  -0.0024494242   21.055055      19.655863      1.3991914     -1.0130078      18412.409    
    235000   0.96124375     0.0023323615  -0.0024776283   20.96708       19.539633      1.427447      -1.0372978      18627.243    
    236000   0.91233531     0.0023323615   0.001159876    20.863578      19.50876       1.3548179     -0.90580073     18834.445    
    237000   1.0767844      0.0023323615   0.00073771593  20.891513      19.292488      1.5990249     -1.199802       18811.042    
    238000   1.1421536      0.0023323615   0.0023804984   21.252284      19.556186      1.6960982     -1.0422687      18884.734    
    239000   1.1311291      0.0023323615   0.0035283429   21.30796       19.628234      1.6797267     -0.9857278      19528.312    
    240000   1.0648754      0.0023323615   0.0011180815   21.254091      19.672751      1.58134       -0.86737312     19972.497    
    241000   1.148583       0.0023323615   0.00082893389  21.200662      19.495016      1.7056458     -0.96031393     18997.356    
    242000   0.80409004     0.0023323615   0.0031839934   20.79007       19.595996      1.1940737     -1.0416491      19598.232    
    243000   0.95671276     0.0023323615   0.0023362305   21.038852      19.618133      1.4207184     -0.98400185     19937.05     
    244000   0.95364279     0.0023323615  -0.002704297    20.967326      19.551166      1.4161595     -0.97993599     19975.831    
    245000   0.86117909     0.0023323615  -0.0018292646   20.710634      19.431783      1.2788509     -1.0509009      19004.514    
    246000   1.0719534      0.0023323615  -0.0015190189   20.880104      19.288253      1.5918508     -1.2293874      18762.524    
    247000   1.086042       0.0023323615  -0.0007917765   20.865739      19.252967      1.6127724     -1.2521291      18888.554    
    248000   0.96533328     0.0023323615   0.0014294952   21.051822      19.618302      1.4335199     -0.90312539     18797.085    
    249000   0.93588067     0.0023323615  -0.0020487854   20.713481      19.323699      1.3897828     -1.2197792      18779.554    
    250000   0.97538057     0.0023323615  -3.2519495e-05  20.923121      19.474681      1.4484402     -1.069937       18728.094    
    251000   0.82099073     0.0023323615  -0.00059050136  20.635569      19.416398      1.2191712     -1.1473303      18786.878    
    252000   0.93109654     0.0023323615   0.0013458284   20.78482       19.402141      1.3826784     -1.1016887      18879.268    
    253000   1.0429455      0.0023323615  -0.0010641029   21.094736      19.545962      1.548774      -0.95860813     18778.402    
    254000   1.1576115      0.0023323615   0.0047173398   21.240784      19.521731      1.7190531     -1.0055561      18811.978    
    255000   1.0465366      0.0023323615  -0.0038831009   21.071674      19.517568      1.5541068     -1.0663312      18800.133    
    256000   0.99509549     0.0023323615   0.0033211534   21.076524      19.598807      1.4777168     -0.94310907     18941.875    
    257000   1.0548893      0.0023323615  -0.0044279342   21.138323      19.571813      1.5665105     -0.95214192     19667.55     
    258000   1.0397716      0.0023323615   0.0010116359   21.208101      19.664041      1.5440608     -0.82919016     20184.807    
    259000   0.94274304     0.0023323615  -0.0056300377   20.981373      19.5814        1.3999734     -0.94181566     19746.846    
    260000   0.94163226     0.0023323615   0.0017121763   20.817123      19.418799      1.3983239     -1.0740303      18765.978    
    261000   1.0573741      0.0023323615   0.0013855279   20.976081      19.40588       1.5702006     -1.0451994      18786.789    
    262000   1.0660349      0.0023323615   0.0014935259   20.948105      19.365043      1.5830618     -1.0939223      18792.778    
    263000   1.1176066      0.0023323615  -0.0016275835   21.235014      19.575368      1.6596459     -1.0063578      18730.076    
    264000   1.0958116      0.0023323615  -4.5781247e-05  21.397343      19.770062      1.6272802     -0.74493606     18895.509    
    265000   1.0833332      0.0023323615  -0.00048359298  21.20178       19.59303       1.6087499     -0.85226642     19374.879    
    266000   0.93223058     0.0023323615   0.0035300196   20.976427      19.592065      1.3843624     -0.78773004     20989.084    
    267000   0.96282196     0.0023323615   0.00029525409  20.999122      19.569331      1.4297906     -0.90163931     21607.185    
    268000   0.92325866     0.0023323615  -0.0016425483   20.758251      19.387212      1.3710391     -0.99087163     21302.746    
    269000   1.00895        0.0023323615   0.0011225838   21.158501      19.66021       1.4982908     -0.80658225     21918.478    
    270000   1.0296312      0.0023323615   6.0945169e-05  21.162974      19.633972      1.5290023     -0.95722063     22159.712    
    271000   0.94176806     0.0023323615  -0.0025615618   21.122084      19.723558      1.3985256     -0.87496161     21148.773    
    272000   0.90345325     0.0023323615  -0.001232469    20.872541      19.530913      1.3416281     -0.96864529     19640.688    
    273000   0.99390696     0.0023323615   0.0016133857   21.022276      19.546324      1.4759518     -0.90129185     19354.332    
    274000   1.0255729      0.0023323615   0.0013223626   21.18422       19.661245      1.5229757     -0.91447303     19595.989    
    275000   0.92049848     0.0023323615  -0.0010069449   20.771797      19.404857      1.3669402     -1.0792875      19383.683    
    276000   0.93823477     0.0023323615   0.0014596122   20.680053      19.286774      1.3932786     -1.1841386      18659.367    
    277000   0.98183377     0.0023323615   0.0019507495   20.825354      19.36733       1.4580231     -1.0770597      18685.828    
    278000   1.0205272      0.0023323615   0.0020762474   20.83965       19.324167      1.5154828     -1.2110411      18736.088    
    279000   0.91061722     0.0023323615  -0.0019720661   20.864154      19.511887      1.3522666     -0.93803661     19018.082    
    280000   0.89520358     0.0023323615  -6.0016763e-05  21.022114      19.692736      1.3293773     -0.84607265     19802.764    
    281000   0.89468282     0.0023323615  -0.0034897147   21.07971       19.751106      1.328604      -0.83501599     19992.127    
    282000   0.95316262     0.0023323615   0.0051091502   21.181725      19.766279      1.4154465     -0.78800475     19678.978    
    283000   0.92944025     0.0023323615   0.00066020359  20.664038      19.283819      1.3802188     -1.0143773      19081.417    
    284000   0.90917463     0.0023323615  -0.0045396114   20.607943      19.257819      1.3501243     -1.213697       18799.453    
    285000   0.99510864     0.0023323615   0.0017604198   20.836933      19.359197      1.4777363     -1.2544555      18786.075    
    286000   0.98203116     0.0023323615  -0.001144848    21.203762      19.745446      1.4583163     -0.93445398     18955.89     
    287000   0.95736833     0.0023323615  -0.0015663869   20.865601      19.443909      1.421692      -1.1308366      18842.182    
    288000   1.008999       0.0023323615  -0.0021067952   20.948891      19.450527      1.4983635     -1.0453619      18746.705    
    289000   0.95613155     0.0023323615  -0.003147824    21.098175      19.67832       1.4198553     -0.86830813     19315.38     
    290000   1.0759967      0.0023323615   0.0025962654   21.326664      19.728809      1.5978551     -0.90301289     19255.265    
    291000   0.89639613     0.0023323615   0.00087200813  20.575179      19.244031      1.3311482     -1.2119936      18779.334    
    292000   0.96599181     0.0023323615  -0.00052585835  20.722242      19.287744      1.4344978     -1.1570566      18706.942    
    293000   1.0357288      0.0023323615   0.00044546903  20.834262      19.296205      1.5380573     -1.0799811      18796.83     
    294000   1.155689       0.0023323615   0.0047898386   21.400027      19.683829      1.7161981     -0.89349634     19083.964    
    295000   1.0305038      0.0023323615  -0.0021147167   21.14802       19.617722      1.5302981     -0.92857846     19146.472    
    296000   1.0891914      0.0023323615  -0.0023311651   21.243975      19.626526      1.6174492     -0.90629606     19575.785    
    297000   1.1067383      0.0023323615   0.0073120825   21.046868      19.403362      1.6435064     -1.0907586      19337.998    
    298000   1.0041442      0.0023323615   0.0060277742   20.958405      19.467251      1.4911541     -0.93077875     18958.807    
    299000   1.1211452      0.0023323615  -0.0012142246   21.22103       19.556129      1.6649006     -1.0563084      18617.653    
    300000   0.90489705     0.0023323615   0.00062631156  20.429084      19.085312      1.3437721     -1.3164262      18560.626    
    301000   0.98715411     0.0023323615  -0.002085855    20.850044      19.38412       1.4659238     -1.062395       18602.181    
    302000   0.99592934     0.0023323615   0.0019861068   20.913856      19.434901      1.4789551     -1.0910393      18885.159    
    303000   1.0910118      0.0023323615  -0.0049401999   21.304258      19.684106      1.6201526     -1.0355814      18749.888    
    304000   1.0424062      0.0023323615  -0.00020342632  20.972013      19.42404       1.5479732     -1.0518796      18655.258    
    305000   1.0776335      0.0023323615  -0.00091747288  21.093638      19.493353      1.6002857     -0.94164362     18686.342    
    306000   0.96227403     0.0023323615  -0.0015494915   20.936023      19.507046      1.4289769     -1.1053841      18759.826    
    307000   1.0702983      0.0023323615   0.0015607657   21.101905      19.512512      1.589393      -1.0912502      18913.347    
    308000   0.99627196     0.0023323615  -0.00097400697  21.171253      19.691789      1.4794639     -0.97858948     19129.738    
    309000   0.96907384     0.0023323615   0.0015436195   20.977323      19.538248      1.4390747     -1.0133145      18858.227    
    310000   1.0175614      0.0023323615  -0.0032605844   20.865472      19.354394      1.5110786     -1.3015595      18679.571    
    311000   1.1140851      0.0023323615   0.00061056255  20.763798      19.109382      1.6544164     -1.4315705      18451.785    
    312000   0.93695619     0.0023323615  -0.0014798145   20.795623      19.404243      1.3913799     -1.1806888      18536.249    
    313000   1.0445418      0.0023323615   0.00017999637  20.914685      19.36354       1.5511445     -1.212602       18530.265    
    314000   1.0586809      0.0023323615  -0.0025858501   20.935356      19.363215      1.5721412     -1.1266227      18597.02     
    315000   1.0136827      0.0023323615  -0.0022404602   20.881628      19.37631       1.5053188     -1.0955407      18800.335    
    316000   1.0386536      0.0023323615  -0.00059252104  20.711245      19.168845      1.5424006     -1.303051       18727.127    
    317000   0.94021056     0.0023323615   0.0010485423   20.755541      19.359329      1.3962127     -1.1305827      18585.316    
    318000   0.92244676     0.0023323615  -0.0019566776   20.969179      19.599346      1.3698334     -1.0263765      18773.994    
    319000   1.0947006      0.0023323615  -0.0010705176   21.089674      19.464043      1.6256305     -0.95887783     18956.995    
    320000   1.0308181      0.0023323615   0.00065193122  21.060131      19.529367      1.5307648     -1.1303361      18793.142    
    321000   1.0101788      0.0023323615   0.002673244    21.02665       19.526535      1.5001155     -1.0401629      18977.161    
    322000   1.1234791      0.0023323615   0.00080186781  21.051427      19.383061      1.6683664     -1.0860813      18658.16     
    323000   0.97558524     0.0023323615  -0.00024666523  20.900169      19.451425      1.4487441     -1.086758       18634.559    
    324000   1.0788489      0.0023323615   0.0025854597   21.077456      19.475365      1.6020906     -1.0198094      18622.353    
    325000   0.91057574     0.0023323615  -0.0023938443   20.599312      19.247107      1.352205      -1.2301583      18717.02     
    326000   0.97635716     0.0023323615   0.0021361069   20.876652      19.426762      1.4498904     -1.237438       18658.861    
    327000   0.95101488     0.0023323615  -0.00043391747  20.972886      19.560629      1.4122571     -0.91639594     18640.584    
    328000   1.0516004      0.0023323615   0.0008578674   20.716815      19.155188      1.5616266     -1.2650154      18724.924    
    329000   1.0510928      0.0023323615   0.0026313557   20.868203      19.30733       1.5608727     -1.1809165      18542.778    
    330000   0.93198565     0.0023323615  -0.0012312786   20.875063      19.491064      1.3839987     -1.046087       18687.885    
    331000   0.92733368     0.0023323615  -0.0033355137   20.922529      19.545439      1.3770905     -0.99624535     18638.025    
    332000   1.0607475      0.0023323615   0.0015693644   21.036731      19.461521      1.5752101     -1.0720604      18812.596    
    333000   1.0055792      0.0023323615  -0.0013274737   21.224908      19.731622      1.4932852     -0.85273821     18822.752    
    334000   1.0488109      0.0023323615  -0.0017896559   21.293635      19.736151      1.5574842     -0.88935564     19315.41     
    335000   0.99368612     0.0023323615   0.0012549568   21.314799      19.839175      1.4756239     -0.71759058     19516.868    
    336000   1.1310168      0.0023323615   0.0038386903   21.167809      19.488249      1.67956       -1.0950493      19240.588    
    337000   1.0085023      0.0023323615  -0.00081150455  21.111281      19.613655      1.4976259     -0.95012402     18861.926    
    338000   1.1205065      0.0023323615  -0.0053489707   21.323425      19.659473      1.6639522     -0.92682903     18778.342    
    339000   0.91163769     0.0023323615  -0.0018677989   20.526614      19.172832      1.353782      -1.3971967      18679.953    
    340000   0.99312208     0.0023323615  -0.0010511693   20.701327      19.226541      1.4747863     -1.27643        18496.054    
    341000   0.99236838     0.0023323615   0.0027220717   20.751002      19.277335      1.473667      -1.2614754      18658.097    
    342000   1.103215       0.0023323615   0.0010637154   20.86103       19.222756      1.6382743     -1.3578879      18724.366    
    343000   0.94332165     0.0023323615   0.0015505222   20.571359      19.170526      1.4008326     -1.2918465      18618.73     
    344000   0.81934851     0.0023323615  -0.0020749861   20.758088      19.541355      1.2167325     -1.0495005      18550.208    
    345000   1.0444795      0.0023323615   0.0015128608   21.180649      19.629597      1.5510521     -0.90052234     18761.568    
    346000   0.94469418     0.0023323615  -0.0027088708   20.990474      19.587603      1.4028709     -0.95265664     19032.182    
    347000   1.0833278      0.0023323615   0.0010092768   20.926617      19.317875      1.6087418     -1.1446016      18756.661    
    348000   1.1497655      0.0023323615  -0.0011266542   21.230959      19.523557      1.7074017     -0.97861112     18919.026    
    349000   1.028131       0.0023323615   0.0014530279   20.880208      19.353433      1.5267746     -1.1185705      18717.516    
    350000   1.0136221      0.0023323615   0.0027952169   20.798201      19.292973      1.5052289     -1.1901812      18669.61     
    351000   0.94755582     0.0023323615   0.0020014689   20.812505      19.405385      1.4071204     -1.1157732      18523.132    
    352000   0.95224837     0.0023323615  -0.0027061742   20.685142      19.271054      1.4140888     -1.2403755      18782.557    
    353000   0.99402862     0.0023323615  -0.00071254948  20.65185       19.175718      1.4761325     -1.2635575      18622.242    
    354000   1.0763026      0.0023323615  -0.00088704635  20.872183      19.273874      1.5983094     -1.2880459      18721.879    
    355000   0.87920591     0.0023323615   0.00085232538  20.927596      19.621975      1.3056208     -0.87914503     18838.548    
    356000   0.93342351     0.0023323615   0.0016026224   20.795418      19.409284      1.3861339     -1.0764089      19016.223    
    357000   1.1929547      0.0023323615  -0.00028262452  21.067501      19.295963      1.7715378     -1.1556629      19098.764    
    358000   1.1173171      0.0023323615  -0.00020010868  21.124554      19.465338      1.6592159     -1.1125712      18682.841    
    359000   1.1848213      0.0023323615  -0.0015121462   21.17696       19.417501      1.7594596     -1.0985226      18660.58     
    360000   0.95542562     0.0023323615  -0.00089301132  20.986746      19.567939      1.418807      -1.1415716      18684.107    
    361000   1.059588       0.0023323615  -0.0033899141   20.911096      19.337608      1.5734882     -1.183478       18688.865    
    362000   0.89528731     0.0023323615  -0.00050337421  20.877508      19.548006      1.3295017     -0.99978115     18760.821    
    363000   0.99885735     0.0023323615   0.0024909674   20.92783       19.444527      1.4833032     -1.0810121      18609.072    
    364000   0.99230728     0.0023323615   0.00021971467  20.956453      19.482877      1.4735763     -1.0114381      18519.335    
    365000   1.0657289      0.0023323615  -0.0023488178   20.804984      19.222377      1.5826074     -1.2714203      18614.167    
    366000   0.86259603     0.0023323615  -0.0031453818   20.702916      19.421961      1.2809551     -1.1655184      18612.012    
    367000   0.9847964      0.0023323615   0.0034902652   21.066045      19.603622      1.4624227     -1.0220216      18808.813    
    368000   1.0380813      0.0023323615  -0.0014494811   21.016815      19.475264      1.5415507     -1.0197415      18620.157    
    369000   1.0066522      0.0023323615  -0.00089919723  20.959693      19.464815      1.4948785     -1.0592981      18761.734    
    370000   0.98779659     0.0023323615  -0.00025373019  20.773655      19.306777      1.4668779     -1.1116857      19145.249    
    371000   1.0846874      0.0023323615   0.00016787299  21.090871      19.480111      1.6107607     -1.1078357      19474.249    
    372000   1.0548352      0.0023323615   0.0017523647   21.125185      19.558755      1.5664303     -1.06883        19369.615    
    373000   0.97680246     0.0023323615  -0.0029174446   20.866418      19.415866      1.4505517     -1.0868208      18849.548    
    374000   0.90412992     0.0023323615  -0.0030699365   20.671333      19.3287        1.3426329     -1.0381683      18759.452    
    375000   1.0547715      0.0023323615  -0.003201338    20.898648      19.332312      1.5663357     -1.2656169      18749.832    
    376000   0.94625075     0.0023323615   0.0018210762   20.722231      19.317049      1.4051824     -1.2558973      18724.219    
    377000   1.1924847      0.0023323615  -0.00021398272  20.935241      19.164401      1.7708397     -1.319121       18571.235    
    378000   0.98484195     0.0023323615  -0.00071658396  20.829833      19.367342      1.4624903     -1.2111197      18729.921    
    379000   1.0549696      0.0023323615   0.0028641283   20.914591      19.347961      1.5666298     -1.1381467      18976.837    
    380000   1.0315813      0.0023323615   0.0043268551   20.89744       19.365542      1.5318982     -1.0598477      18919.542    
    381000   0.96344926     0.0023323615   0.00048494758  20.759604      19.328882      1.4307222     -1.1752144      18684.838    
    382000   1.0188331      0.0023323615   0.0018307371   20.76864       19.255673      1.5129672     -1.2307118      18728.435    
    383000   1.0060161      0.0023323615  -0.0002055994   20.678059      19.184125      1.4939339     -1.3972707      18663.4      
    384000   1.0001219      0.0023323615   0.0055368877   20.622761      19.13758       1.485181      -1.3143541      18685.555    
    385000   0.99791406     0.0023323615  -0.00044998023  20.651374      19.169472      1.4819024     -1.3063933      18679.407    
    386000   1.0662106      0.0023323615   0.0071619746   21.161967      19.578644      1.5833227     -1.0126176      18663.805    
    387000   0.94185479     0.0023323615  -0.0015356159   20.828268      19.429613      1.3986544     -1.120799       18689.911    
    388000   0.98694295     0.0023323615   0.0030793929   21.084072      19.618462      1.4656103     -0.98215972     18853.827    
    389000   0.9320972      0.0023323615   0.004135725    21.18401       19.799846      1.3841643     -0.80971428     19207.702    
    390000   1.0482054      0.0023323615  -0.00017770549  21.234391      19.677806      1.556585      -0.85293321     19953.878    
    391000   1.0819813      0.0023323615   0.0035050422   21.094374      19.487632      1.6067423     -1.0149982      19711.877    
    392000   0.93066471     0.0023323615  -0.0005560774   20.930423      19.548386      1.3820371     -0.97434011     20068.138    
    393000   0.86779351     0.0023323615   0.00054173635  20.994391      19.705717      1.2886734     -0.81433978     20356.53     
    394000   0.93870738     0.0023323615   0.00011206977  20.937896      19.543916      1.3939805     -0.9854801      19823.85     
    395000   0.98891789     0.0023323615   0.00072551467  20.959005      19.490462      1.4685431     -1.0019699      19294.594    
    396000   1.1182367      0.0023323615  -0.00047255787  21.158953      19.498372      1.6605816     -1.0555724      19046.357    
    397000   1.1684317      0.0023323615  -0.0025712798   20.965859      19.230738      1.7351211     -1.2780062      18817.632    
    398000   0.90719188     0.0023323615  -0.0020494256   20.670735      19.323555      1.3471799     -1.2354176      18620.407    
    399000   0.99579468     0.0023323615  -0.00043701888  20.860523      19.381768      1.4787551     -1.1801295      18643.045    
    400000   1.079459       0.0023323615  -0.0022545897   20.776092      19.173096      1.6029966     -1.343378       18710.523    
    401000   1.1903064      0.0023323615  -0.0032872983   21.371539      19.603934      1.767605      -0.97387544     18776.858    
    402000   1.2492641      0.0023323615   0.0017831175   21.14213       19.286973      1.8551571     -1.1521975      18786.457    
    403000   1.0312727      0.0023323615  -0.0044310488   20.969336      19.437896      1.53144       -1.0445208      18742.128    
    404000   1.1032871      0.0023323615  -0.00038432957  21.095313      19.456932      1.6383813     -1.0239545      18866.508    
    405000   1.0204715      0.0023323615   0.0038049717   20.805056      19.289655      1.5154002     -1.2163358      18826.768    
    406000   0.97755004     0.0023323615   0.0039491246   20.995247      19.543586      1.4516618     -1.0780659      18668.947    
    407000   1.0610745      0.0023323615  -0.0005374092   21.109969      19.534274      1.5756956     -1.034897       18701.751    
    408000   0.9868439      0.0023323615   1.4026438e-05  20.628997      19.163534      1.4654632     -1.3113684      18490.677    
    409000   1.0005068      0.0023323615   0.0037387692   21.012574      19.526821      1.4857526     -1.0165011      18728.508    
    410000   0.9190686      0.0023323615  -0.0045571405   20.887579      19.522762      1.3648169     -1.0470921      18891.883    
[...]
    861000   1.0481502      0.0023323615   0.0018404011   21.14802       19.591517      1.556503      -0.92011268     19357.016    
    862000   1.0469131      0.0023323615   0.0070084806   21.138718      19.584052      1.554666      -0.91340538     19137.21     
    863000   0.94865673     0.0023323615  -0.0014510861   20.905904      19.497149      1.4087553     -1.0002278      19005.835    
    864000   1.0123843      0.0023323615   0.0014164216   21.192985      19.689594      1.5033908     -0.84360969     19020.152    
    865000   0.91288084     0.0023323615   0.0025654033   21.060308      19.70468       1.3556281     -0.903671       19689.087    
    866000   0.88054774     0.0023323615  -0.0020406777   20.910971      19.603357      1.3076134     -0.90868016     19916.566    
    867000   0.98810604     0.0023323615  -0.0016272859   20.978835      19.511498      1.4673375     -1.0430014      19603.991    
    868000   1.1095628      0.0023323615   0.0013489349   21.029354      19.381653      1.6477007     -1.0479265      18995.881    
    869000   1.1704436      0.0023323615  -0.00075830001  21.344929      19.60682       1.7381087     -0.96646143     18742.277    
    870000   0.97110407     0.0023323615  -0.0029613745   20.855697      19.413608      1.4420895     -1.0246503      18730.483    
    871000   1.0369526      0.0023323615   0.0012970371   20.885336      19.345462      1.5398746     -1.1578025      18847.797    
    872000   1.0423694      0.0023323615   0.0033237397   20.876232      19.328314      1.5479185     -1.1725161      18744.712    
    873000   1.0881665      0.0023323615   0.0012291514   20.906063      19.290136      1.6159273     -1.1515771      18673.183    
    874000   1.0760055      0.0023323615  -0.00050076534  20.967157      19.369289      1.5978681     -1.1471726      18446.301    
    875000   1.2179046      0.0023323615   0.0020807676   21.311318      19.50273       1.8085884     -1.0492176      18692.792    
    876000   0.87784452     0.0023323615   0.001178058    20.771283      19.467684      1.3035991     -1.0291485      18672.918    
    877000   0.98054747     0.0023323615  -0.0016618195   20.982265      19.526152      1.456113      -0.87939478     18686.989    
    878000   1.0106594      0.0023323615   0.00019174561  21.056484      19.555655      1.5008293     -0.94544208     18616.233    
    879000   0.90249763     0.0023323615  -0.00048326613  20.879457      19.539248      1.340209      -1.0484793      18756.421    
    880000   1.0037679      0.0023323615  -0.0040904904   21.042635      19.55204       1.4905953     -0.91450289     18967.241    
    881000   1.1112742      0.0023323615  -0.0020846578   21.259963      19.609721      1.6502421     -0.87660331     18966.314    
    882000   0.92963123     0.0023323615  -9.8472209e-05  20.617286      19.236784      1.3805024     -1.1766558      18514.055    
    883000   1.0065673      0.0023323615  -0.0018299912   20.899304      19.404552      1.4947524     -0.99705193     18658.1      
    884000   1.0074356      0.0023323615  -0.002171613    20.861218      19.365176      1.4960419     -1.1011762      18554.298    
    885000   0.83873855     0.0023323615   0.0016554543   20.597371      19.351844      1.2455267     -1.1435913      18651.961    
    886000   0.89143893     0.0023323615  -0.0013917899   20.703967      19.38018       1.3237868     -1.1107404      18664.202    
    887000   0.95303639     0.0023323615  -0.00162325     20.748031      19.332772      1.415259      -1.1421929      18635.419    
    888000   1.0179301      0.0023323615   0.0033838578   20.741785      19.230159      1.5116262     -1.2825989      18596.348    
    889000   0.95107961     0.0023323615  -0.00023738401  20.710553      19.2982        1.4123532     -1.2136082      18539.954    
    890000   0.92900158     0.0023323615   0.0017318812   20.561591      19.182023      1.3795673     -1.3825218      18480.865    
    891000   1.0346393      0.0023323615  -0.0017703246   20.802255      19.265816      1.5364394     -1.1584547      18471.419    
    892000   1.0182018      0.0023323615  -0.00057471051  20.911421      19.399391      1.5120297     -1.0904514      18545.773    
    893000   0.97677759     0.0023323615  -0.00032972346  20.875896      19.425381      1.4505147     -1.1468709      18634.911    
    894000   1.0755367      0.0023323615   0.0024311383   20.99663       19.399458      1.5971719     -1.1981331      18364.581    
    895000   0.96316011     0.0023323615   0.00012079028  20.419339      18.989047      1.4302928     -1.3556263      18451.774    
    896000   0.96161131     0.0023323615  -0.00055548607  20.745679      19.317686      1.4279928     -1.2425149      18519.572    
    897000   1.0291459      0.0023323615  -0.00068633504  20.945782      19.4175        1.5282816     -1.1381796      18649.789    
    898000   0.94449713     0.0023323615   0.00041205089  21.035749      19.633171      1.4025782     -1.0473186      18582.683    
    899000   1.0318593      0.0023323615   0.001368727    20.774866      19.242555      1.532311      -1.2682414      18569.307    
    900000   0.92243002     0.0023323615  -0.0015851162   20.826196      19.456387      1.3698086     -1.1331852      18714.588    
    901000   0.9840787      0.0023323615   0.0026584263   20.924701      19.463344      1.4613569     -1.0494133      18914.881    
    902000   1.0977875      0.0023323615   0.0040000201   21.18761       19.557396      1.6302145     -1.0590583      18706.791    
    903000   1.058009       0.0023323615   0.0011528883   20.901975      19.330832      1.5711433     -1.2211619      18707.538    
    904000   0.91301453     0.0023323615  -0.0048011545   21.104364      19.748538      1.3558266     -0.94878416     18714.774    
    905000   0.94321096     0.0023323615  -0.0029679272   20.663176      19.262508      1.4006683     -1.2378937      18678.002    
    906000   0.99535161     0.0023323615   0.0010544295   20.8161        19.338003      1.4780971     -1.1734044      18880.922    
    907000   0.90763999     0.0023323615   0.00055158584  20.625396      19.277551      1.3478454     -1.2848624      18823.796    
    908000   0.99713676     0.0023323615   0.003006607    20.795721      19.314973      1.4807481     -1.156471       18777.183    
    909000   1.005034       0.0023323615   0.00048086086  20.930233      19.437758      1.4924754     -1.0615691      18718.393    
    910000   0.99357539     0.0023323615   0.0061850313   20.904691      19.429231      1.4754595     -1.1335522      18911.652    
    911000   1.1129648      0.0023323615  -0.0014458921   21.325958      19.673205      1.6527528     -0.94022818     19194.315    
    912000   0.97320951     0.0023323615  -0.00044585482  20.956404      19.511188      1.4452161     -1.0375044      19343.897    
    913000   0.76812301     0.0023323615   0.0015952211   20.718263      19.5776        1.1406627     -1.0144584      19371.908    
    914000   0.98306488     0.0023323615   0.0019255628   21.082226      19.622375      1.4598513     -0.9210885      19212.312    
    915000   0.95869011     0.0023323615  -0.0009920932   20.824085      19.40043       1.4236548     -1.1226554      18964.833    
    916000   0.99875849     0.0023323615   0.00065075058  20.763259      19.280103      1.4831564     -1.2462411      18626.812    
    917000   1.0176804      0.0023323615  -0.0023783367   20.716347      19.205091      1.5112554     -1.3211968      18636.961    
    918000   1.0071651      0.0023323615  -0.0035485341   21.152043      19.656403      1.4956402     -1.0727521      18901.012    
    919000   0.98466814     0.0023323615   0.0015626117   20.927058      19.464825      1.4622322     -1.1070459      18706.276    
    920000   0.98176512     0.0023323615  -0.00039963045  21.058312      19.600391      1.4579212     -0.99304299     18669.272    
    921000   0.85071928     0.0023323615   0.0018765309   20.653279      19.38996       1.2633181     -1.1294367      18672.436    
    922000   0.99255816     0.0023323615   0.0011598932   20.757707      19.283758      1.4739489     -1.1582291      18509.3      
    923000   1.0610776      0.0023323615   0.0014123338   20.797836      19.222136      1.5757002     -1.2924005      18638.203    
    924000   1.0577091      0.0023323615  -0.00064532264  20.703969      19.133271      1.570698      -1.3657795      18650.469    
    925000   1.0083047      0.0023323615  -0.00056247225  21.069487      19.572154      1.4973325     -0.93331086     18676.279    
    926000   1.0426685      0.0023323615   0.0016105823   20.83929       19.290927      1.5483627     -1.2410111      18758.011    
    927000   0.9247858      0.0023323615   0.0010055333   20.683322      19.310015      1.3733069     -1.2024443      18691.455    
    928000   0.97208832     0.0023323615   0.0029689236   20.937906      19.494355      1.4435512     -0.97961834     18728.231    
    929000   0.93812442     0.0023323615   3.958846e-05   21.152302      19.759188      1.3931148     -0.87238305     18989.487    
    930000   0.93967052     0.0023323615  -1.7217838e-05  21.013145      19.617735      1.3954107     -0.99071242     18899.381    
    931000   1.0210611      0.0023323615  -0.0022472751   21.075697      19.559422      1.5162758     -1.0260795      18817.607    
    932000   0.87958209     0.0023323615   0.0019762707   20.628025      19.321845      1.3061794     -1.1296614      18706.367    
    933000   0.89770287     0.0023323615   0.0014495475   20.610778      19.277689      1.3330888     -1.2551919      18552.891    
    934000   1.0960709      0.0023323615   0.0049058155   21.166856      19.53919       1.6276653     -1.0886103      18680.907    
    935000   0.97140726     0.0023323615  -0.0026305706   20.717956      19.275417      1.4425398     -1.1876178      18685.135    
    936000   1.0193719      0.0023323615   0.00067620699  20.849909      19.336142      1.5137673     -1.2718311      18700.69     
    937000   1.0270937      0.0023323615   0.0024390446   20.875441      19.350207      1.5252341     -1.2317635      18600.763    
    938000   1.0206634      0.0023323615  -0.0011012761   20.930036      19.414351      1.5156852     -1.1674189      18712.291    
    939000   1.0784881      0.0023323615   9.4482473e-05  21.120298      19.518743      1.6015549     -1.0118479      18731.127    
    940000   0.89183814     0.0023323615  -0.0025301258   20.990635      19.666256      1.3243796     -0.99197763     18441.556    
    941000   0.97258215     0.0023323615  -0.0023501985   20.976778      19.532493      1.4442845     -1.049039       18679.453    
    942000   1.0267187      0.0023323615  -0.00054962684  20.989995      19.465318      1.5246772     -1.1198357      18586.195    
    943000   0.87760305     0.0023323615  -0.0028112584   20.584536      19.281295      1.3032405     -1.3019707      18651.239    
    944000   0.97414933     0.0023323615  -0.0022975112   20.647163      19.200551      1.4466117     -1.2778815      18618.684    
    945000   0.93214642     0.0023323615   0.0046211378   20.682157      19.29792       1.3842374     -1.2884795      18637.02     
    946000   0.99767999     0.0023323615   0.0064332562   20.940851      19.459297      1.4815548     -1.2428988      18672.062    
    947000   1.0130327      0.0023323615   0.0031951083   20.462797      18.958443      1.5043536     -1.3461183      18626.057    
    948000   0.94848865     0.0023323615  -0.005617976    20.717159      19.308654      1.4085057     -1.208327       18561.793    
    949000   1.0338177      0.0023323615   0.0031710115   20.83439       19.299171      1.5352192     -1.2117931      18598.788    
    950000   1.0164804      0.0023323615  -0.0024792203   21.102315      19.592842      1.5094733     -0.89204037     18938.867    
    951000   0.98531518     0.0023323615  -0.0011532395   21.092554      19.629361      1.463193      -0.9019585      19242.988    
    952000   0.97927075     0.0023323615   0.0050334553   21.124608      19.670391      1.4542171     -0.88303188     19980.633    
    953000   1.0199091      0.0023323615   0.0027369634   21.107702      19.593137      1.514565      -0.91142037     20313.535    
    954000   0.95290075     0.0023323615   0.0011859191   20.946357      19.531299      1.4150576     -0.94343516     19545.65     
    955000   1.0546656      0.0023323615  -0.00066175992  20.943488      19.377309      1.5661784     -1.0727552      18799.68     
    956000   0.97620352     0.0023323615  -0.00060156867  20.743555      19.293893      1.4496622     -1.3080239      18719.26     
    957000   0.98293164     0.0023323615  -0.0023766744   20.750577      19.290924      1.4596535     -1.2607902      18623.99     
    958000   0.98032756     0.0023323615   0.00045363658  20.826105      19.370318      1.4557864     -1.2509502      18751.181    
    959000   0.94319339     0.0023323615   0.00081138161  20.722669      19.322026      1.4006422     -1.1387417      18690.902    
    960000   1.0265781      0.0023323615  -0.00030512873  20.899997      19.375529      1.5244684     -1.1497098      18725.04     
    961000   0.95241525     0.0023323615   0.00028783151  20.644765      19.230428      1.4143366     -1.1467331      18799.726    
    962000   0.95309586     0.0023323615  -0.0015135004   20.707723      19.292376      1.4153473     -1.1826795      18774.619    
    963000   1.0239297      0.0023323615  -0.0050941844   20.875783      19.355248      1.5205355     -1.1373384      19125.827    
    964000   1.0402615      0.0023323615  -0.00018640757  21.097385      19.552597      1.5447884     -1.0259821      18845.277    
    965000   0.95923005     0.0023323615   0.0020753436   21.022513      19.598057      1.4244566     -0.90685555     18740.457    
    966000   0.88629645     0.0023323615  -0.0022073089   20.931231      19.615081      1.3161502     -0.9824651      18670.127    
    967000   0.90121586     0.0023323615   0.00054168044  21.043432      19.705127      1.3383056     -0.86156926     18820.942    
    968000   0.95761691     0.0023323615   0.00079459082  21.083112      19.661051      1.4220611     -0.91591696     18816.876    
    969000   1.0786624      0.0023323615  -0.0039543936   21.17717       19.575356      1.6018136     -0.96208521     18706.146    
    970000   0.89693594     0.0023323615  -0.0020769791   20.757141      19.425191      1.3319499     -1.0518905      18756.784    
    971000   1.1388484      0.0023323615  -0.0019246614   21.136981      19.445791      1.6911899     -1.0767656      18917.219    
    972000   0.98382489     0.0023323615   0.0027662038   20.958048      19.497068      1.46098       -1.0849795      19167.529    
    973000   0.92157154     0.0023323615   0.00082016318  20.835189      19.466655      1.3685337     -1.0624031      18813.106    
    974000   0.92306976     0.0023323615  -0.0027695612   20.753833      19.383075      1.3707586     -1.1571747      18670.134    
    975000   0.90926036     0.0023323615   0.0025917376   20.936875      19.586623      1.3502516     -1.0390451      18659.747    
    976000   1.0159959      0.0023323615   0.0039726889   21.288276      19.779523      1.5087538     -0.91840127     18723.435    
    977000   1.1018407      0.0023323615  -0.003913846    21.220743      19.584509      1.6362334     -0.99701758     18799.209    
    978000   0.99075464     0.0023323615  -4.4656521e-05  20.950946      19.479676      1.4712706     -1.0099024      18764.972    
    979000   0.83063097     0.0023323615  -0.0020269551   20.853729      19.620242      1.233487      -0.89903319     18930.817    
    980000   0.85088527     0.0023323615   0.0022678132   20.498195      19.234631      1.2635646     -1.2067646      19033.267    
    981000   1.0159312      0.0023323615   0.0018630071   20.747982      19.239324      1.5086578     -1.1969569      18829.212    
    982000   1.1738429      0.0023323615   0.00019287995  21.401446      19.658289      1.7431567     -0.98098356     18936.086    
    983000   1.0451019      0.0023323615  -0.00068323622  21.276306      19.72433       1.5519763     -0.87270851     18876.016    
    984000   0.95228448     0.0023323615   0.00082941222  20.849395      19.435252      1.4141424     -1.0675763      18752.389    
    985000   0.95872682     0.0023323615  -0.0019888114   20.672537      19.248828      1.4237093     -1.1693767      18723.46     
    986000   0.94775839     0.0023323615   0.00094120287  20.940929      19.533508      1.4074212     -1.1270638      18816.557    
    987000   0.97450994     0.0023323615   0.0011694055   20.771413      19.324265      1.4471473     -1.1379203      19029.762    
    988000   0.86843302     0.0023323615   0.0011057948   20.781952      19.492329      1.289623      -1.0340395      18858.772    
    989000   1.034011       0.0023323615   0.0023931539   20.956525      19.421019      1.5355064     -1.0917145      18701.446    
    990000   0.84386438     0.0023323615  -0.001428883    20.79556       19.542422      1.2531386     -1.0342341      18788.869    
    991000   1.0871295      0.0023323615  -0.0050230784   21.281043      19.666656      1.6143874     -1.0072379      18999.5      
    992000   0.94274022     0.0023323615  -0.0007798833   20.856392      19.456423      1.3999692     -1.0379776      18910.871    
    993000   1.029407       0.0023323615   0.00095313334  20.814842      19.286173      1.5286694     -1.1714433      18696.668    
    994000   0.94591676     0.0023323615  -0.0040000191   20.816834      19.412147      1.4046864     -1.0829401      18655.509    
    995000   0.90950336     0.0023323615  -0.0015614836   20.810781      19.460168      1.3506125     -1.0182321      19119.057    
    996000   0.89830474     0.0023323615   0.0037671909   20.722093      19.38811       1.3339825     -1.095429       18925.68     
    997000   0.99779452     0.0023323615   0.00059465083  20.883424      19.401699      1.4817249     -1.082411       18945.575    
    998000   0.97742623     0.0023323615  -0.0037748528   20.860374      19.408896      1.451478      -1.0597739      18802.244    
    999000   1.0682293      0.0023323615   0.0020771142   20.787736      19.201416      1.5863206     -1.2699066      18525.921    
   1000000   0.89464502     0.0023323615  -0.00070279099  20.763844      19.435296      1.3285479     -1.0922045      18721.546    
Loop time of 52.7463 on 1 procs for 1000000 steps with 100 atoms

Performance: 8190143.188 tau/day, 18958.665 timesteps/s
99.4% CPU use with 1 MPI tasks x 1 OpenMP threads

MPI task timing breakdown:
Section |  min time  |  avg time  |  max time  |%varavg| %total
---------------------------------------------------------------
Pair    | 43.691     | 43.691     | 43.691     |   0.0 | 82.83
Bond    | 1.2732     | 1.2732     | 1.2732     |   0.0 |  2.41
Neigh   | 3.8367     | 3.8367     | 3.8367     |   0.0 |  7.27
Comm    | 1.4014     | 1.4014     | 1.4014     |   0.0 |  2.66
Output  | 0.24932    | 0.24932    | 0.24932    |   0.0 |  0.47
Modify  | 1.9405     | 1.9405     | 1.9405     |   0.0 |  3.68
Other   |            | 0.3545     |            |       |  0.67

Nlocal:            100 ave         100 max         100 min
Histogram: 1 0 0 0 0 0 0 0 0 0
Nghost:            324 ave         324 max         324 min
Histogram: 1 0 0 0 0 0 0 0 0 0
Neighs:           4851 ave        4851 max        4851 min
Histogram: 1 0 0 0 0 0 0 0 0 0

Total # of neighbors = 4851
Ave neighs/atom = 48.51
Ave special neighs/atom = 1.98
Neighbor list builds = 97941
Dangerous builds = 80354

write_data      ${outputfile_assembled} nofix nocoeff
write_data      7_assembled.data nofix nocoeff
System init for write_data ...
Generated 0 of 6 mixed pair_coeff terms from geometric mixing rule

Total wall time: 0:00:54
