LAMMPS data file via write_data, version 23 Jun 2022, timestep = 1000000

100 atoms
4 atom types
99 bonds
1 bond types

0 35 xlo xhi
0 35 ylo yhi
0 35 zlo zhi

Masses

1 1
2 1
3 1
4 1

Atoms # full

1 1 1 0 10.861580901550834 30.155059225701724 25.234420610859164 0 0 0
2 1 4 1 11.780369390273124 30.25173259494748 25.351099795132946 0 0 0
29 1 3 -1 12.684878348317435 30.127750372214727 23.744913279086628 0 0 0
94 1 3 -1 13.135284867853496 33.1788625513543 23.508590808421985 0 0 0
93 1 2 0 13.750762714626426 32.99985262474903 24.171749241257004 0 0 0
30 1 3 -1 11.694084215572618 30.093868385789367 23.900321970842214 0 0 0
3 1 4 1 11.359697475053823 31.03605400856582 24.96109401990975 0 0 0
32 1 2 0 12.370119910779634 31.7370544494944 23.299546112550217 0 0 0
34 1 3 -1 12.113842394462592 32.79151386157833 23.82120821047301 0 0 0
92 1 2 0 14.48084695011684 32.932661266325866 24.769826113582774 0 0 0
58 1 4 1 11.999451680119677 1.0848645746994656 26.31188930783908 0 1 0
62 1 2 0 13.434687665401967 34.16339860534566 28.2132038131241 0 0 0
44 1 1 0 11.194952422673028 34.32716179294116 26.362284570206302 0 0 0
42 1 1 0 10.944286255906615 0.9220405970241464 25.9972997997357 0 1 0
60 1 1 0 12.939128335718511 0.15109568420223896 27.159233159670986 0 1 0
61 1 4 1 13.487292936621426 34.40792805311796 27.31868212994268 0 0 0
43 1 3 -1 11.576555592877641 0.15463802848269598 25.95607696439018 0 1 0
63 1 1 0 13.04744523839724 34.9228567248685 28.729457882945717 0 0 0
40 1 3 -1 10.964928422183004 0.7729667624097338 24.728071649515222 0 1 0
59 1 4 1 12.625977995953065 0.359646202312476 26.248719225190758 0 1 0
9 1 1 0 9.854543324091631 31.642411577081365 26.204066616555068 0 0 0
8 1 3 -1 10.345712164669633 31.564504546083707 25.377794104470787 0 0 0
7 1 4 1 10.346467391913615 32.259563891789576 24.701509309118265 0 0 0
11 1 1 0 9.126356195528407 32.11272549221725 27.342375424202793 0 0 0
10 1 2 0 10.031765491761439 31.80517553640482 27.137612190951938 0 0 0
12 1 3 -1 8.349469455123467 32.11978194337308 26.830432250191688 0 0 0
6 1 4 1 11.160629964215227 32.698859292653104 24.346116782246444 0 0 0
13 1 2 0 8.82292581473958 32.852340059683634 26.44147418864013 0 0 0
19 1 1 0 12.729377192285966 32.42051146948762 27.039483512876178 0 0 0
20 1 1 0 12.919143684067452 31.87267419293607 27.838545357782404 0 0 0
21 1 1 0 13.546309582046694 31.418855825716253 28.36932872140355 0 0 0
22 1 2 0 12.774749919459483 30.86330803411935 28.219744919399993 0 0 0
45 1 1 0 11.162309402517314 33.358071877506845 26.324841133824716 0 0 0
47 1 2 0 11.2067396712965 33.75253189480656 24.786704128546948 0 0 0
15 1 1 0 10.420027576814016 32.54658215427898 25.83225527216459 0 0 0
16 1 1 0 10.996684214593577 32.35322533261107 26.53103705022222 0 0 0
46 1 3 -1 11.591195274823308 33.228810679551124 25.472592808071013 0 0 0
53 1 4 1 11.574782730859503 34.57430183478713 28.003686918052068 0 0 0
54 1 4 1 11.33585549134757 0.4282470398879224 28.34719548272307 0 1 0
57 1 2 0 11.880870281741634 0.3644215389902261 27.02078527669796 0 1 0
23 1 4 1 12.56213689676444 30.090084896992455 27.719295953577177 0 0 0
56 1 3 -1 12.009235421990375 1.0929254827386738 27.624565626799026 0 1 0
55 1 1 0 11.572052591769003 1.343265608013437 28.523157777742888 0 1 0
5 1 4 1 11.458626462296941 32.155918799893016 25.083830797182387 0 0 0
24 1 3 -1 11.681864927660303 30.472130583117764 27.618260684474173 0 0 0
33 1 1 0 12.900736693891023 32.280353230373635 23.901656339639953 0 0 0
69 1 1 0 11.786547981587729 32.78613605102784 30.025077901156436 0 0 0
67 1 4 1 10.666593375974792 33.647060281313365 30.51830882075586 0 0 0
68 1 1 0 11.397968418721431 33.24621372350233 30.840190060605217 0 0 0
49 1 4 1 11.971764413247607 34.800779840514004 25.066533734843148 0 0 0
50 1 4 1 12.426716963529941 34.25300963903289 25.761653896243526 0 0 0
48 1 4 1 11.186679658553828 34.69422675410776 24.60299512442521 0 0 0
27 1 1 0 12.347224240933299 31.181398869318784 25.286366048923316 0 0 0
26 1 3 -1 12.429404178913527 30.842859525472328 26.163000672163577 0 0 0
28 1 3 -1 12.428613262985968 30.54530913255838 24.596705837678535 0 0 0
14 1 3 -1 9.565979254056078 33.024113812488494 25.9092609574928 0 0 0
100 1 3 -1 13.48283716323722 34.32019849529496 25.134914508298284 0 0 0
52 1 4 1 12.317364261888883 34.096184503806334 27.714707628147472 0 0 0
4 1 2 0 11.375349736204422 31.53865137232529 25.760451362986384 0 0 0
25 1 1 0 12.009459101758825 31.118407004573832 26.977230537570616 0 0 0
51 1 1 0 12.332619103099873 34.2880629251859 26.77517880241263 0 0 0
36 1 2 0 12.062289479443859 33.91208510707725 23.980396169674336 0 0 0
41 1 3 -1 10.82489132485358 1.5577772354427437 25.256504076938928 0 1 0
37 1 3 -1 11.80325554266217 34.637846480496 23.43001046497824 0 0 0
99 1 3 -1 13.018586172492096 0.00627075180895816 24.742112647844316 0 1 0
98 1 4 1 13.619598307278176 0.23119092783045556 24.070821741888864 0 1 0
70 1 4 1 12.53708343022515 33.32284360361143 30.144025774796123 0 0 0
31 1 4 1 11.975548243257826 30.947471448129367 23.55592018674955 0 0 0
38 1 4 1 11.155359839034405 0.3182933579115255 23.765567392281813 0 1 0
39 1 1 0 10.317711125981628 0.47674340935833187 24.075351269778032 0 1 0
95 1 4 1 12.963616117070357 33.92462429539333 22.894224140900036 0 0 0
96 1 2 0 13.53971380960239 34.178916877679725 23.65039672680954 0 0 0
35 1 4 1 12.285248665215166 33.29439804376438 24.695491376982215 0 0 0
85 1 3 -1 15.348533269853812 29.673431593842974 26.101901402704875 0 0 0
84 1 4 1 15.60981242315423 29.81833319723878 27.008505230679358 0 0 0
82 1 3 -1 14.297901878800523 29.929303473429226 27.418111261752692 0 0 0
97 1 2 0 13.218665647548061 34.911544527195254 23.227070134700067 0 0 0
81 1 1 0 13.876415546816306 30.54604393977129 27.97149634822327 0 0 0
91 1 3 -1 14.40609143087321 32.14385319031535 25.334966984757394 0 0 0
86 1 2 0 14.681755446706907 30.45189729752906 26.054346976789745 0 0 0
87 1 4 1 14.904023763504819 31.319815209226398 25.63373218372115 0 0 0
90 1 1 0 13.466254810583349 32.22182339850145 25.051103285869615 0 0 0
89 1 1 0 13.456698002562518 31.343948822478715 24.581450934668748 0 0 0
88 1 4 1 14.105989709342735 30.935002385898372 25.23384620863184 0 0 0
71 1 3 -1 13.175920762757261 33.388316637459894 29.447964847760655 0 0 0
83 1 2 0 14.979263850323692 30.50450385916488 27.02720375361483 0 0 0
79 1 2 0 14.447584157164735 30.14868479129732 29.188684862604852 0 0 0
80 1 1 0 14.635667708293184 30.761384920957177 28.519724091351897 0 0 0
77 1 1 0 12.707125559968794 29.793767788913694 29.100928440240615 0 0 0
78 1 1 0 13.655460398074718 29.592469924259362 29.05583031265785 0 0 0
64 1 3 -1 12.16275087796871 34.73303875165692 29.127185587234294 0 0 0
66 1 4 1 11.519319338222056 34.12487470785277 30.26699798574132 0 0 0
18 1 3 -1 12.709759658010013 32.52849526742874 26.099462023034263 0 0 0
17 1 1 0 11.930088523998457 32.09880605967275 26.339073231858414 0 0 0
65 1 3 -1 11.364494688027952 34.342568330950165 29.350306315279717 0 0 0
72 1 2 0 12.484754449975577 32.928135019678805 28.92807538275421 0 0 0
73 1 1 0 11.840939165927056 32.43832063942752 28.343324765361206 0 0 0
74 1 3 -1 11.95698715257462 31.532516901312427 28.727205640608826 0 0 0
76 1 4 1 12.056594355790532 30.57178712762838 29.28408061434447 0 0 0
75 1 3 -1 11.385241404014474 30.74159901438276 28.677877658980204 0 0 0

Velocities

1 0.10889644245205456 -0.30008094510568945 0.9566952854028827
2 -0.7118263971559563 0.6755315367542001 1.1202932379609203
29 -0.6555124030876808 1.506667690697183 1.7765690557534106
94 -0.14198943063212457 -0.39977763897678253 0.6537650666570313
93 0.5319177905593983 0.8690185189229531 0.4359766193098663
30 0.3588014979379107 0.6333159852815239 -0.9720632113330164
3 0.7912270739230685 0.6129031000130261 0.8821540070247746
32 0.9877554776716135 -1.3625958856048752 2.0182337727077915
34 0.6587201371235785 -0.07886268108185193 0.44368959499226446
92 1.685378189268503 0.7033079824515379 -1.3163270668897
58 1.5617748680549284 1.8513869120064534 -1.0388460229219802
62 -0.901525668900263 -0.7974726103128461 -2.24403772250865
44 1.2581731331730783 0.3417721255897981 -0.5209396056016656
42 -0.42463216601003834 0.011044241304890687 -0.666821194345334
60 -0.025894901530237158 2.267441072604398 -1.8715629232423705
61 0.6021882455248598 0.09204855627045361 -0.5154030070926608
43 0.18224800835563712 -0.4680990208971973 -0.094505926295873
63 -0.22520623789716768 -0.5079743485956139 1.103472702550495
40 0.55588739185941 -1.7334433242251686 -0.17491792869646144
59 -1.597957355568428 0.3643246606501381 0.3798954069841869
9 0.6733912533508347 -0.07751306595388444 0.43908119149255265
8 -2.4924176981130017 -1.0485781276115846 -0.9488387192891711
7 0.5346358553881726 -0.2665198810982948 -0.7721828571581949
11 -1.3896083648010265 -0.22272343415736265 -1.8336148644421846
10 -0.04776786579630878 0.8233024844759967 0.6920911049682359
12 -0.534075621805064 0.5040011516661557 -0.8385527477991294
6 2.231531145009033 -0.4996257798123382 0.26363761613979025
13 0.3707996514139604 -1.9995489695504205 0.3164315979770335
19 1.1842028558257505 0.06745498997212789 0.26917785526751026
20 1.433002144977862 1.7552459341513837 0.6509228616517009
21 0.9822510845990484 -1.1557602403916056 -0.2679576691006309
22 0.6973308216487534 1.4401564737934014 -0.005585573109431234
45 -0.48540384649445834 1.7148705648494957 -0.889340517284721
47 -0.7268735386602129 -0.47236950022261986 1.505191157821847
15 0.37076490385482 1.4560903016564042 1.4293767527580556
16 1.1327443830524786 -0.9237102390598222 0.11191978516855385
46 -0.4584194779284587 -1.5807816874749772 -0.8380462570068912
53 -0.6520341264548267 -1.2667176301425023 -0.2999009213610745
54 2.0595763444685673 0.499493505398656 -0.43976175253713135
57 1.105881937731085 -0.3150538990962593 -0.030307725504788705
23 3.006149570077528 0.6026954304983085 1.2552881850394437
56 1.2391977384038853 0.009830382015351816 0.00643652171555089
55 1.5222333558008452 0.3194972855811373 -0.3923620029983511
5 -1.2271221329908546 0.01817176610585108 -3.4878368603042462
24 0.17718051204259996 -0.1242020007602501 0.5582039797177932
33 0.6803124161537248 -1.5422558942226618 -0.9649234686302317
69 -0.2445166831478351 -0.35287419183030466 -0.03729162334359
67 -1.2950550984958467 -0.2567825984497802 1.481181348714799
68 -0.7673573833699507 -0.5242825381078042 -0.18091807201803875
49 -0.9129903337632225 0.027281306363030628 0.7645459877449624
50 -0.8069631125578386 0.04752607291954571 1.0367710618593242
48 0.024239761599208667 0.13852952999863588 1.1980582065366874
27 1.0982068504401077 -0.5965703312732995 -0.8691820646988981
26 0.08136314792595997 -0.9805241259885827 0.17852154640935416
28 -0.614549218244687 0.03784195774813676 -0.0733635263984539
14 0.5073338323812606 0.36128573643054945 1.5462702071761194
100 -1.309547179344107 0.2793064786394967 -0.6100929674368771
52 -0.5953260147476647 -0.6128324566115274 1.2181672642541972
4 -0.8591783823776209 -0.9403433762486971 -0.44032356872168765
25 0.347596952349736 3.207536555879396 -0.6439576588309395
51 -0.14027934968357486 -0.4226667355036342 -0.043787696763188104
36 -1.9521324434529015 1.1284656754231739 0.1701251623975259
41 -0.6783446410800926 -0.8296030638956652 1.202598476229881
37 0.2817075493597627 -0.49616348888410866 0.8364652338113856
99 -0.7114108794971411 0.6559723735193167 0.19554746582618646
98 -0.4056043191053866 1.669556621868283 0.5168066076205196
70 0.5442164043843895 -2.358862572905122 -0.15902363203321085
31 -0.07254381664623397 0.41555363309944515 1.217382352160396
38 -2.104008592836598 1.8271640802420264 0.8477555384162785
39 1.7947822830618152 -0.7622582640133642 -0.8365763811165857
95 0.5558955943738382 0.1551151661555181 -2.034154546659454
96 0.005318809708637466 0.38319513207495964 1.022910232950327
35 0.37386419280835137 0.2851591237799952 0.21170045873667498
85 -1.006291244459915 -1.4500022287512013 0.07701784880127661
84 0.25318922198625327 -0.2285434952177946 -0.16344846453311668
82 0.2638430472294009 -0.19488186833356427 2.5889763641160988
97 0.6193584269187807 -0.16607924520348333 -0.66282981088594
81 -0.509298958872114 -1.9121750414511607 -0.9646502510643714
91 -1.226887976308051 -0.48000155750148005 -0.31786948473464777
86 -1.4160639432397808 -0.8145652442404769 -0.16436336841646007
87 -0.6484111525318884 1.2694172904255443 0.7657398004985507
90 -0.07952314007473521 0.49503690860721056 -0.09139551074663864
89 -0.3329943951348596 0.3977426907517842 -1.376741293705416
88 -0.6004264736391248 0.4880059737607213 0.6143653628290445
71 -0.8627108899166479 -0.9264344781513346 -0.5396941857188743
83 0.15317438010734277 0.10117099226443012 -0.7882287688910394
79 0.004211999339312796 -0.2564652127669925 0.45304644931131477
80 -0.65821376427091 0.6413742317234995 1.018879771804976
77 -1.0403707501621542 0.39317040296243494 0.026440349326743325
78 0.6817408215727417 -0.6636008471862304 1.0174291027919877
64 -0.6611557226272148 -0.14862072719995428 0.4859358705111346
66 -0.29542789643107853 1.0108780779789444 -1.6847809846611286
18 -1.0405741950089704 0.2860335971525038 -1.6856968956882847
17 -0.24315166742466848 -1.4582731128410265 -1.0010299129925264
65 -0.01246921524007839 -0.9132435194515555 -0.19794860841049888
72 0.22951949988501005 -0.5098975745593025 1.1978434490626326
73 0.29241001362347724 0.830257904601908 -1.0060451884595967
74 -0.859919244114327 -0.34764026516003055 -0.023705574221209603
76 0.5419816156625968 -0.00232054683595294 -2.514301515645065
75 0.32385667721235584 1.0780253458367253 1.3770532232895587

Bonds

1 1 1 2
2 1 2 3
3 1 29 30
4 1 94 95
5 1 93 94
6 1 30 31
7 1 3 4
8 1 32 33
9 1 34 35
10 1 92 93
11 1 58 59
12 1 62 63
13 1 44 45
14 1 42 43
15 1 60 61
16 1 61 62
17 1 43 44
18 1 63 64
19 1 40 41
20 1 59 60
21 1 9 10
22 1 8 9
23 1 7 8
24 1 11 12
25 1 10 11
26 1 12 13
27 1 6 7
28 1 13 14
29 1 19 20
30 1 20 21
31 1 21 22
32 1 22 23
33 1 45 46
34 1 47 48
35 1 15 16
36 1 16 17
37 1 46 47
38 1 53 54
39 1 54 55
40 1 57 58
41 1 23 24
42 1 56 57
43 1 55 56
44 1 5 6
45 1 24 25
46 1 33 34
47 1 69 70
48 1 67 68
49 1 68 69
50 1 49 50
51 1 50 51
52 1 48 49
53 1 27 28
54 1 26 27
55 1 28 29
56 1 14 15
57 1 52 53
58 1 4 5
59 1 25 26
60 1 51 52
61 1 36 37
62 1 41 42
63 1 37 38
64 1 99 100
65 1 98 99
66 1 70 71
67 1 31 32
68 1 38 39
69 1 39 40
70 1 95 96
71 1 96 97
72 1 35 36
73 1 85 86
74 1 84 85
75 1 82 83
76 1 97 98
77 1 81 82
78 1 91 92
79 1 86 87
80 1 87 88
81 1 90 91
82 1 89 90
83 1 88 89
84 1 71 72
85 1 83 84
86 1 79 80
87 1 80 81
88 1 77 78
89 1 78 79
90 1 64 65
91 1 66 67
92 1 18 19
93 1 17 18
94 1 65 66
95 1 72 73
96 1 73 74
97 1 74 75
98 1 76 77
99 1 75 76
