LAMMPS data file via write_data, version 23 Jun 2022, timestep = 1000000

100 atoms
4 atom types
99 bonds
1 bond types

0 35 xlo xhi
0 35 ylo yhi
0 35 zlo zhi

Masses

1 1
2 1
3 1
4 1

Atoms # full

39 1 4 1 11.511718715808964 32.60277266709643 24.473322148962 0 0 0
60 1 4 1 7.499886054584072 31.65910911439693 25.275517924954553 0 0 0
57 1 2 0 9.045754480183216 32.730439146569545 25.47571573488198 0 0 0
58 1 1 0 8.96798095131847 32.517268815631546 24.552400499810638 0 0 0
59 1 3 -1 8.128032048167652 32.18025514430735 24.731823736663657 0 0 0
38 1 3 -1 11.740422584149774 33.33850356066259 23.933012093889808 0 0 0
41 1 4 1 10.68987460465394 33.37651667229292 25.10136011930402 0 0 0
90 1 4 1 8.167151947369804 0.0435768485812095 26.42792230802414 0 1 0
89 1 2 0 7.2790075145431725 0.39289753645319786 26.396110769519037 0 1 0
72 1 1 0 11.58438608574648 33.658388050264236 27.238068404066322 0 0 0
40 1 1 0 10.57357557414235 32.61927087922499 24.536806714068017 0 0 0
74 1 1 0 10.069236644717183 34.786319758516576 27.027640381973512 0 0 0
73 1 3 -1 10.839238596962002 34.249231738057 27.299481747427713 0 0 0
2 1 1 0 20.88935972753791 32.77381912201887 26.17243931659945 0 0 0
15 1 1 0 18.210461454337846 32.55567768569728 24.003494349843876 0 0 0
56 1 1 0 9.662847733154377 31.898516833826392 25.530733306240798 0 0 0
82 1 2 0 7.112586858770652 33.46090353411621 27.978208799909822 0 0 0
83 1 1 0 7.8258802079662235 33.71797566194475 27.39160622700034 0 0 0
55 1 2 0 10.598388713752973 32.155156714398565 25.61326323896436 0 0 0
61 1 2 0 8.375455157474137 31.3094563877595 25.62368008583715 0 0 0
85 1 1 0 7.886075521439614 32.981225261426374 25.615149882382074 0 0 0
88 1 2 0 7.129583039049704 34.4293697717478 26.601417073175327 0 0 0
86 1 2 0 7.208907526532924 33.65728654688248 25.760251476976375 0 0 0
84 1 1 0 7.949728375307938 33.39051432124348 26.456877010067334 0 0 0
87 1 3 -1 6.620559716379113 33.6163105548774 26.511427107602493 0 0 0
91 1 2 0 7.866742932590895 34.72551207008209 27.304708110201837 0 0 0
92 1 1 0 7.930634630215305 34.447356848045594 28.253441613460367 0 0 0
76 1 3 -1 9.121018852439466 34.44784402695441 27.444804116422503 0 0 0
43 1 1 0 9.858195616593553 33.794805040117666 26.471814328798057 0 0 0
77 1 2 0 8.895296526240124 33.77493973575748 26.788368320304848 0 0 0
45 1 2 0 10.836419462475591 32.748573413639086 26.885344109758275 0 0 0
44 1 1 0 10.012869466512168 33.13184902990817 27.169760293484636 0 0 0
42 1 1 0 9.873065619849305 33.6360692620452 25.533419269633814 0 0 0
81 1 4 1 7.063270577377244 32.74950442419486 27.366000620477518 0 0 0
80 1 1 0 8.017058681007049 32.68140941859795 27.166312507094435 0 0 0
64 1 2 0 9.229079828331674 30.92776715696363 27.307947857209893 0 0 0
63 1 1 0 8.34537600377116 30.48335324633641 27.22234857110698 0 0 0
78 1 2 0 9.024369134125015 32.85143514088356 26.5271496903083 0 0 0
53 1 1 0 9.614164725676115 30.762302800080608 25.974524805358325 0 0 0
93 1 4 1 8.854507355967725 34.42736411006172 28.531952335997936 0 0 0
75 1 1 0 9.872171168375129 34.90446088323806 27.925923874522354 0 0 0
52 1 1 0 9.19479815811854 31.543610388277642 26.41715149107872 0 0 0
79 1 1 0 8.419678538000683 32.150888032235166 26.467078161712436 0 0 0
62 1 1 0 8.617750296627726 30.595166469520834 26.320378040043547 0 0 0
71 1 4 1 11.257589093347637 33.35572059408985 28.090351156916196 0 0 0
96 1 1 0 7.550472360480862 31.879629311243413 28.12491559620718 0 0 0
95 1 2 0 7.896546700648207 32.786205288905656 28.322833278571053 0 0 0
94 1 1 0 8.513078315081051 33.53278781272275 28.50003436882576 0 0 0
70 1 2 0 10.353999531720381 33.20078454311769 28.36682601402304 0 0 0
97 1 1 0 7.226063541299436 31.484199584930003 28.965210252942374 0 0 0
98 1 1 0 8.11311994276731 31.68560033285002 29.128476990600202 0 0 0
69 1 2 0 9.436399192419879 32.82612133215909 28.255473607406675 0 0 0
68 1 2 0 8.885738063611097 33.12220731939521 27.571151159905845 0 0 0
67 1 2 0 8.789120006421127 32.137120747844094 27.763249283093476 0 0 0
54 1 1 0 10.462084456834438 31.171807882619486 25.614577672849677 0 0 0
49 1 1 0 10.72768773374116 31.483531534771124 27.408866595233786 0 0 0
99 1 4 1 8.943005432722355 32.20007821045111 29.089736189887663 0 0 0
65 1 1 0 10.12470101577195 30.77702762898909 27.674236929077768 0 0 0
66 1 1 0 9.671928898512137 31.67618914625381 27.777107700712936 0 0 0
48 1 3 -1 11.631913138468398 31.90069111575684 27.36083259019623 0 0 0
51 1 1 0 9.845870945445807 32.142568656993475 26.730455595463564 0 0 0
46 1 4 1 11.431137178331358 32.41766843944277 26.133264374437296 0 0 0
37 1 1 0 12.501560204167609 33.360835218511255 24.519260248613787 0 0 0
47 1 1 0 11.967017895635808 32.709883362106396 26.91210703861076 0 0 0
50 1 1 0 10.259759788613485 31.28709847570915 26.56839698536519 0 0 0
100 1 4 1 9.03355884470192 31.27108664952357 28.749884308874854 0 0 0
25 1 2 0 17.131437330604626 33.22008600136959 25.873622968898225 0 0 0
26 1 1 0 16.47774598071786 32.602087949250404 25.422202610706762 0 0 0
22 1 2 0 18.185333077659813 33.01611724598946 25.920673855087895 0 0 0
24 1 4 1 17.53644200168362 33.69215634820442 25.096882586036383 0 0 0
33 1 2 0 13.344656643762134 33.87474874334337 25.206071315819813 0 0 0
32 1 1 0 14.129844305838525 33.56763088511941 24.793930718030733 0 0 0
35 1 4 1 12.860004720131323 32.52223990913515 25.548091550759285 0 0 0
36 1 3 -1 12.090087526816474 33.13860402684148 25.411658185576936 0 0 0
34 1 3 -1 13.112134100908522 33.45199482674421 26.02083280279415 0 0 0
28 1 1 0 15.872888074458395 31.35606662970047 25.652545569206 0 0 0
31 1 2 0 14.33253319887632 32.84448740173862 25.353467868755345 0 0 0
29 1 3 -1 14.934368722806981 31.31926502971151 25.309883241402826 0 0 0
30 1 3 -1 14.12224663861169 31.90304081449785 25.447990342347953 0 0 0
27 1 1 0 16.733205718721607 31.66122809301374 25.497156068972725 0 0 0
14 1 1 0 18.186585651449967 32.465369304347405 24.949975412795318 0 0 0
23 1 2 0 18.308539418517924 33.94363889778392 25.607531141690682 0 0 0
20 1 2 0 17.792361586244986 32.040517982808154 26.329205141514663 0 0 0
19 1 1 0 18.750934170431773 31.793209567640908 26.07511475852599 0 0 0
17 1 1 0 17.42768083182769 31.863703208529763 24.749585019242478 0 0 0
18 1 1 0 18.203588236727082 31.559593458908743 25.33619731086593 0 0 0
12 1 1 0 19.508306642709666 32.613903898373046 24.425492528408977 0 0 0
8 1 1 0 19.229330680407067 33.31543145359089 26.064294566196086 0 0 0
3 1 3 -1 20.450794899634943 32.984663084518196 26.945229261769096 0 0 0
13 1 2 0 19.087746562538815 32.546834517593645 25.275333602789473 0 0 0
11 1 1 0 20.49207170784369 32.558847157992766 24.255643111146373 0 0 0
10 1 4 1 20.52841075315701 33.50476150648404 24.67111074754728 0 0 0
9 1 3 -1 19.820869221177144 33.274356169321344 25.263645566523 0 0 0
7 1 1 0 19.021825116170103 32.954377923528924 26.880373188055756 0 0 0
21 1 2 0 17.606083402515278 32.9274687128571 26.70722079317288 0 0 0
16 1 1 0 18.140141035082106 31.61845987778643 24.06985895642393 0 0 0
1 1 1 0 21.494593387083672 33.44801490381585 26.553913121180624 0 0 0
4 1 3 -1 19.87418171039408 33.51792385830868 27.47413723495984 0 0 0
5 1 1 0 18.967819493705697 33.82900933510815 27.49760212268789 0 0 0
6 1 1 0 18.42914644708 33.73427369042366 26.80001183866085 0 0 0

Velocities

39 -0.6057092732766381 0.1997084808159294 -0.48152706081399965
60 0.3158576903765292 -0.42185489234409357 0.058690076123936875
57 0.9067224423760256 0.25283171711830493 -0.5578454287532788
58 1.0107743510885343 -1.5922154344194075 2.3720897809475483
59 -0.14481526832470773 -0.1272264996070879 -0.5358371191060679
38 0.5974961018755793 0.20252158485482408 -0.3403299807510399
41 -0.5636348650357532 -0.18430758207570705 -0.50372611272802
90 -0.5254540165839002 -1.7408776601663676 -0.28221395681526423
89 -0.0030848001733349106 -0.6804194813255959 0.3542033836097455
72 1.1453109696393846 0.5957737133137903 1.3425121223863878
40 1.5947404388257111 0.15018354751592447 1.9891933155929549
74 0.43019728305027277 -0.5281964126536964 0.2815249951043832
73 -0.19365657521973811 -0.632645127450414 -1.5139858627074128
2 2.562774466906295 0.3891456399353007 0.7711311231576962
15 -0.6323215964719999 -0.32320521667082697 0.4040195129484886
56 1.4534351817251736 -1.0028577086486579 -0.6644495226713586
82 -1.4211044539312414 -0.9071760023525243 1.0986509649031617
83 -0.7998205215994887 0.5383389430058432 -0.9033519831256824
55 1.1086806390915565 -1.4330473149812457 -0.6288664697117239
61 -0.9038435689698235 -0.043432821061325344 0.028859420498101907
85 0.5640930673257775 0.9854600055929432 1.903035154530679
88 0.04837598459186129 0.8919968373314351 2.37551333778681
86 0.5490832458376689 1.3229390134868233 0.26785290253320493
84 0.17650800945999157 -0.4309408523837207 0.49326940479356357
87 -0.5962176293167515 -0.8434500986012528 0.3386399698968468
91 -1.2035067909805317 0.15130040211358117 -0.14850354324806586
92 -0.5045454889807591 -0.9947774156669213 -1.171038556042076
76 0.6837497016343272 -1.8238585805028107 0.6595113668029897
43 1.016934110621928 -0.5159324459451265 -0.7435132798197948
77 -0.571732022512676 -0.33205183327778803 -0.21316364911502347
45 -0.9345630651738106 -0.4666003285931691 -0.19587551191648228
44 0.1101931616862669 -1.132223438888963 -0.9985632671838439
42 -0.15257243775043433 -0.8424904159293061 -0.09513666914996224
81 -0.06974084213823105 1.3259629483434172 0.7925529635111959
80 0.27622796325445287 1.6142830159093886 -0.3774382270286437
64 -0.8713269469565694 0.3000352119872624 2.937919317195501
63 -1.0428496250293482 -0.9628323092932205 -1.455542565650208
78 0.9692456119819812 -1.470747896899808 0.4736727610016779
53 -0.821307276988866 -0.268316969436186 0.9970272427754983
93 -0.025081975445230893 -0.22813481375133657 1.3002738395224553
75 0.9678725396622389 0.6266077450684735 -0.783668433924432
52 -0.0925881448562859 -0.4532619050632073 0.47000150157340326
79 0.5243021303365487 -0.7531248145763056 1.4223392227408702
62 0.16626439079781283 0.4635516082003628 0.0021146142060188724
71 -1.1286372478973599 1.4831034919208297 0.15056055700244309
96 1.0581008320343863 0.05668078039655318 1.0836266138733894
95 -0.48832898701999644 -1.4584518581976218 -0.7582455410017777
94 -0.8075880131648988 2.3917053475195145 -0.5878421982420542
70 -0.6481000461609717 -1.5442173586552446 1.6544946525754252
97 -1.6928572013844623 -0.24113072375241057 0.13321889362881575
98 -1.150616541973267 0.2879550851849006 0.5671222612142305
69 0.2459656021857918 -0.5026222401772399 -1.0928767950782985
68 0.2010126085963745 -1.6725751145370251 0.1555544013467431
67 1.0986355601564246 0.7545874267717075 2.037425199441266
54 2.2307664627223693 -0.4685633570187608 -0.029282875735203516
49 0.3621491493065879 0.21331089296185607 -0.8325859718604977
99 -0.11998094585033883 0.8576401669426983 1.087752849108567
65 0.2628106761776254 1.2335257274950389 -0.487025913994764
66 -0.12964635898773202 -0.6958402283322482 1.2024021465848873
48 0.07526241666383424 -0.30066337271232607 0.5830936088708791
51 0.6164942397010891 -0.1966641433258506 -0.724466047075895
46 -1.6729073473928502 -0.9752307713076835 2.0422699675012534
37 -0.8146757478866687 -0.3025000498289723 0.11826621787699165
47 0.9789241335199917 0.1452212401703392 -0.5107017639040147
50 -1.8443425815235581 0.6051771490138512 -2.117532018661442
100 -0.9692798951372306 -1.4279843517424802 2.595497848837207
25 -0.19885832654166713 0.7190469024005738 0.7732209875189079
26 0.2590659024669596 0.746382095989169 -1.8081161706523363
22 0.36558185893075057 1.0408336450240627 0.8324493109027543
24 0.3418726733500258 1.413573597927419 -0.8840096762436852
33 -1.1424227176456536 0.6039024150196861 0.6775325417664648
32 0.5558965192415336 -2.0018023246059746 -1.430112832893376
35 -0.04274892242283232 0.5512020521360275 -0.3349726014406829
36 -0.4478327554821744 -1.2252548302210724 0.06820324251108857
34 -0.23168799285135683 0.5568104764664539 1.5369054353039058
28 -1.543786897853232 1.4678240568521639 -0.5242503224771142
31 0.8852593749102637 1.0902599161422057 -0.7319720783173163
29 0.1989962969410419 0.8073696778622058 -1.9524614386263877
30 -0.6694606037257232 -0.6288826772289297 -0.8380883779034402
27 -1.1747691607083548 1.080686172911313 -1.099045130895302
14 -1.0168253920505828 0.5001882019071116 -1.0406257465290294
23 0.341069259474971 -0.26673416631108243 -0.048724460201458195
20 0.25307412649299976 1.0370435884666132 -0.0033643533073712136
19 1.104212446846083 -0.38885840040445785 -3.506099898039039
17 -0.7645611836515647 -0.5202180394481588 -0.14590759003741344
18 0.5420745928395032 0.5563425821238385 -0.5576899574868219
12 -1.2163210940426412 -0.0064643517036536155 -0.028332577823197525
8 0.31487849046147354 -1.3617863456676713 -0.4668933028724817
3 1.1226290371163954 1.2580113613881438 1.397884938402702
13 0.09286284892281625 -1.1782346973351752 -0.8989410713160069
11 0.9641816429991154 0.5993895091016604 -1.034659941320525
10 -0.3702113410137622 0.5334547838676197 -0.7687682559378644
9 0.313512311711413 -0.677489450200238 0.12149550836924781
7 -0.43214347397096226 1.1075142841255174 -1.1832327880988303
21 1.5819080659996658 0.7757673854969284 0.4533944115285234
16 0.49955010982236364 0.7978696457280073 -1.1074308436113744
1 -0.5479144312904506 2.2182316947530047 -2.4737524500856902
4 -0.5467293673427118 1.0152496217864306 -0.5286922652731234
5 -0.5519598059597406 0.5863592320846684 -0.3732181255732147
6 0.999084844911099 0.07551450274863747 1.097528694470597

Bonds

1 1 39 40
2 1 60 61
3 1 57 58
4 1 58 59
5 1 59 60
6 1 38 39
7 1 41 42
8 1 90 91
9 1 89 90
10 1 72 73
11 1 40 41
12 1 74 75
13 1 73 74
14 1 2 3
15 1 15 16
16 1 56 57
17 1 82 83
18 1 83 84
19 1 55 56
20 1 61 62
21 1 85 86
22 1 88 89
23 1 86 87
24 1 84 85
25 1 87 88
26 1 91 92
27 1 92 93
28 1 76 77
29 1 43 44
30 1 77 78
31 1 45 46
32 1 44 45
33 1 42 43
34 1 81 82
35 1 80 81
36 1 64 65
37 1 63 64
38 1 78 79
39 1 53 54
40 1 93 94
41 1 75 76
42 1 52 53
43 1 79 80
44 1 62 63
45 1 71 72
46 1 96 97
47 1 95 96
48 1 94 95
49 1 70 71
50 1 97 98
51 1 98 99
52 1 69 70
53 1 68 69
54 1 67 68
55 1 54 55
56 1 49 50
57 1 99 100
58 1 65 66
59 1 66 67
60 1 48 49
61 1 51 52
62 1 46 47
63 1 37 38
64 1 47 48
65 1 50 51
66 1 25 26
67 1 26 27
68 1 22 23
69 1 24 25
70 1 33 34
71 1 32 33
72 1 35 36
73 1 36 37
74 1 34 35
75 1 28 29
76 1 31 32
77 1 29 30
78 1 30 31
79 1 27 28
80 1 14 15
81 1 23 24
82 1 20 21
83 1 19 20
84 1 17 18
85 1 18 19
86 1 12 13
87 1 8 9
88 1 3 4
89 1 13 14
90 1 11 12
91 1 10 11
92 1 9 10
93 1 7 8
94 1 21 22
95 1 16 17
96 1 1 2
97 1 4 5
98 1 5 6
99 1 6 7
