LAMMPS Description

# Polymer sequence:
# ABDDABCCBAABBAABCDAB
20 atoms
19 bonds
4 atom types
1 bond types

0.0 28.43 xlo xhi
0.0 28.43 ylo yhi
-5.0 5.0 zlo zhi

Masses

# [typeID] [mass]
1 1.0
2 1.0
3 1.0
4 1.0

Atoms # full

# [atom_id] [molecule_tag] [atom_type] [charge] [pos_x] [pos_y] [pos_z]
1     1 1   0.0 0.00000 0.0 0.0
2     1 2   0.0 0.97000 0.0 0.0
3     1 4   1.0 1.94000 0.0 0.0
4     1 4   1.0 2.91000 0.0 0.0
5     1 1   0.0 3.88000 0.0 0.0
6     1 2   0.0 4.85000 0.0 0.0
7     1 3  -1.0 5.82000 0.0 0.0
8     1 3  -1.0 6.79000 0.0 0.0
9     1 2   0.0 7.76000 0.0 0.0
10    1 1   0.0 8.73000 0.0 0.0
11    1 1   0.0 9.70000 0.0 0.0
12    1 2   0.0 10.67000 0.0 0.0
13    1 2   0.0 11.64000 0.0 0.0
14    1 1   0.0 12.61000 0.0 0.0
15    1 1   0.0 13.58000 0.0 0.0
16    1 2   0.0 14.55000 0.0 0.0
17    1 3  -1.0 15.52000 0.0 0.0
18    1 4   1.0 16.49000 0.0 0.0
19    1 1   0.0 17.46000 0.0 0.0
20    1 2   0.0 18.43000 0.0 0.0

Bonds

1     1     1     2    
2     1     2     3    
3     1     3     4    
4     1     4     5    
5     1     5     6    
6     1     6     7    
7     1     7     8    
8     1     8     9    
9     1     9     10   
10    1     10    11   
11    1     11    12   
12    1     12    13   
13    1     13    14   
14    1     14    15   
15    1     15    16   
16    1     16    17   
17    1     17    18   
18    1     18    19   
19    1     19    20   
