ITEM: TIMESTEP
0
ITEM: NUMBER OF ATOMS
20
ITEM: BOX BOUNDS pp pp pp
0.0000000000000000e+00 3.5000000000000000e+01
0.0000000000000000e+00 3.5000000000000000e+01
0.0000000000000000e+00 3.5000000000000000e+01
ITEM: ATOMS id type xu yu zu vx vy vz
18 4 8.97406 35.11 27.9415 -1.03458 -1.27511 1.01273
16 2 9.23292 33.7557 27.8518 -1.5027 1.00338 0.146604
17 3 8.49841 34.3882 27.5297 0.407599 -0.00777993 0.726273
14 1 10.8146 33.8399 27.4272 1.12132 0.312148 0.666475
13 2 11.366 33.2617 26.8793 1.40442 -2.13723 -0.628645
15 1 10.0588 33.2507 27.5856 -1.27915 0.189978 -0.522976
19 1 8.81643 34.4349 28.6377 -0.63164 -0.204467 0.0122177
4 4 15.1512 32.3304 24.0323 -0.105505 0.685678 -2.11642
6 2 15.5603 31.5612 25.1549 -1.19717 0.526759 0.716831
1 1 12.912 32.6407 24.7181 -1.69831 1.25786 0.779409
3 4 14.5731 32.1969 24.7483 0.838522 0.206808 -0.262926
2 2 13.854 32.8412 24.8204 0.780543 0.936838 -0.225182
5 1 16.0357 32.1773 24.5982 2.0823 -2.3872 -0.0482765
8 3 13.8166 30.8138 24.9794 -0.858965 -1.04219 -0.174263
7 3 14.7911 30.9722 25.2043 2.70381 -0.095434 0.500479
9 2 13.5141 31.1065 25.9155 0.07457 0.00940228 -0.252678
11 1 12.3068 32.1651 26.8601 1.33824 0.747062 0.945108
10 1 12.7121 31.5696 26.2721 -0.893993 -0.136844 -0.821547
12 2 12.2126 33.1224 27.341 -1.94507 -0.302271 -0.314273
20 2 9.40307 34.0528 29.2865 0.395758 1.71262 -0.138939
ITEM: TIMESTEP
10000
ITEM: NUMBER OF ATOMS
20
ITEM: BOX BOUNDS pp pp pp
0.0000000000000000e+00 3.5000000000000000e+01
0.0000000000000000e+00 3.5000000000000000e+01
0.0000000000000000e+00 3.5000000000000000e+01
ITEM: ATOMS id type xu yu zu vx vy vz
16 2 11.8601 33.7327 27.4609 -0.194842 -1.07017 -0.709798
17 3 11.352 33.1141 28.024 0.560222 -0.00232229 -0.343972
18 4 11.1284 32.6703 27.2254 0.751004 -1.2842 2.2854
19 1 11.5354 33.1846 26.5651 -0.105414 0.178542 -0.231419
7 3 11.3695 31.4571 25.1102 0.559315 1.17304 -1.20088
14 1 12.4094 32.9108 28.7003 -0.0227308 0.115009 3.17379
15 1 12.5229 33.6871 28.1679 0.560987 -0.135171 1.25357
9 2 12.6534 31.3705 26.3191 0.638335 -0.356779 0.291552
11 1 12.0951 32.2147 26.6261 -0.473978 2.14366 -2.30692
13 2 13.0942 32.8006 28.0162 -0.155904 1.27721 -0.109199
12 2 12.3799 32.5356 27.4653 -1.12634 -0.182396 0.28195
20 2 12.4568 33.4419 26.5891 0.445563 0.187157 -0.768041
10 1 12.8611 32.2253 26.0369 -1.76184 1.3055 -1.51588
4 4 12.3563 32.8782 24.7844 0.0489595 0.182196 -0.698113
6 2 12.1652 31.8036 24.6723 0.679035 -0.531181 0.294456
1 1 13.2337 34.6874 25.4303 -0.21789 -1.82264 -0.082759
3 4 11.8618 33.4489 25.4303 0.263613 -0.891067 -0.0712383
2 2 12.6738 33.9559 25.1062 0.260445 0.464907 0.498372
5 1 12.7978 32.308 24.1205 -0.324011 -0.604554 -0.351679
8 3 11.7968 31.1644 25.9335 -0.384534 -0.146749 0.310814
ITEM: TIMESTEP
20000
ITEM: NUMBER OF ATOMS
20
ITEM: BOX BOUNDS pp pp pp
0.0000000000000000e+00 3.5000000000000000e+01
0.0000000000000000e+00 3.5000000000000000e+01
0.0000000000000000e+00 3.5000000000000000e+01
ITEM: ATOMS id type xu yu zu vx vy vz
1 1 10.7377 32.876 27.6626 -0.588787 1.39966 1.25399
2 2 11.0082 33.6723 27.1517 -0.598431 -0.385916 -0.179464
4 4 11.882 33.707 26.2524 -1.37448 -2.19862 -0.353183
5 1 11.7737 32.8539 25.9049 -0.717189 1.4719 -1.30453
3 4 10.9405 33.8834 26.2254 -0.607082 -0.961013 -0.258012
7 3 12.4177 32.5322 25.0865 1.74016 -1.3965 0.434981
8 3 11.49 32.3354 25.0461 0.605966 -0.375985 2.62587
6 2 12.7339 33.0549 25.7907 1.06801 1.0978 -0.64772
20 2 12.4318 33.2179 27.0853 -1.1839 0.858927 -0.765184
18 4 13.5342 33.6142 27.3079 1.05881 -0.846811 1.47257
19 1 13.086 32.9581 27.8426 0.813908 0.926995 -0.124301
12 2 12.3889 32.0456 26.1605 -2.06259 0.540444 -0.646322
15 1 13.7152 32.1243 25.9064 -0.124108 -0.506053 1.67205
14 1 13.729 31.3111 26.3858 0.0699939 0.388183 -2.45414
13 2 13.0686 31.7627 26.8561 0.258584 0.331275 -0.119189
16 2 13.5254 32.929 26.4236 -0.435178 -0.283226 -0.760753
11 1 11.4681 31.8123 26.3024 0.148286 -0.526455 -1.61048
10 1 10.7077 32.3533 26.4392 0.68538 -0.385162 -0.11618
17 3 13.2232 33.8924 26.406 0.649231 -0.356863 0.576407
9 2 10.742 32.6558 25.5479 0.593424 1.20743 1.30358
ITEM: TIMESTEP
30000
ITEM: NUMBER OF ATOMS
20
ITEM: BOX BOUNDS pp pp pp
0.0000000000000000e+00 3.5000000000000000e+01
0.0000000000000000e+00 3.5000000000000000e+01
0.0000000000000000e+00 3.5000000000000000e+01
ITEM: ATOMS id type xu yu zu vx vy vz
2 2 10.5009 33.6287 25.5801 -2.00391 -0.996844 -0.0709821
3 4 9.62708 33.4867 26.0685 0.925706 -0.122604 -1.22962
4 4 10.1966 32.7485 25.8138 -1.14561 -0.0502589 -0.534144
5 1 10.6627 33.147 26.5753 -1.51855 0.768643 -0.41654
1 1 10.7062 34.5558 25.1562 -0.069645 1.05614 0.463633
8 3 11.8429 32.0864 24.7403 0.720275 -0.167573 0.947897
6 2 11.003 32.2407 26.3955 -1.11449 1.20038 0.872724
7 3 11.1549 32.3188 25.3878 -1.1884 0.32275 -0.543139
10 1 12.1028 31.7274 25.8951 1.07063 -1.05128 0.402584
9 2 12.448 32.5018 25.4211 0.0453505 0.704594 -1.45865
12 2 12.7131 32.8008 26.6531 0.524132 -0.352752 0.265194
13 2 12.8839 33.6766 26.2253 -0.184811 0.0400054 -0.633639
14 1 13.6974 33.638 26.6781 0.426594 1.47849 -1.40474
11 1 12.9761 31.8921 26.2894 -1.43307 0.0317621 -1.02918
20 2 14.8238 33.1473 28.1039 0.58304 -0.190632 2.28613
18 4 13.1686 32.7482 27.7629 0.736702 0.589852 1.20113
19 1 14.0496 32.5882 28.0654 1.79927 -0.636404 1.01776
15 1 13.6869 32.7201 26.4904 -0.711312 -1.06587 -1.11434
16 2 13.6432 31.9495 27.096 -0.175469 0.638764 0.659354
17 3 12.7161 31.9891 27.3856 2.71357 -2.19716 0.318555
ITEM: TIMESTEP
40000
ITEM: NUMBER OF ATOMS
20
ITEM: BOX BOUNDS pp pp pp
0.0000000000000000e+00 3.5000000000000000e+01
0.0000000000000000e+00 3.5000000000000000e+01
0.0000000000000000e+00 3.5000000000000000e+01
ITEM: ATOMS id type xu yu zu vx vy vz
7 3 11.3579 31.3729 25.9779 -1.69109 -0.811313 0.0847015
4 4 10.1292 32.1409 26.678 0.789652 -0.590575 -1.05339
5 1 10.5079 32.1147 25.8265 0.987318 1.24647 0.249301
6 2 10.5198 31.1852 25.5832 0.173473 -0.95495 0.616247
3 4 11.1296 32.2887 26.7904 -0.432177 -0.612431 -0.464538
9 2 12.2685 32.7595 25.3827 -2.33572 -0.593563 1.21931
20 2 13.6724 33.5143 27.673 -0.89405 -0.210257 -0.0172686
19 1 13.4457 33.7595 26.7918 1.29218 1.41917 -0.768479
8 3 12.0232 31.7953 25.4079 0.725242 -0.704454 -0.492878
2 2 11.8662 31.8893 27.33 0.153414 -2.07205 0.455634
1 1 12.1005 32.6444 27.9577 -1.16643 1.05621 1.2561
18 4 12.7796 34.5353 26.6308 0.6585 -0.189392 0.958913
17 3 11.9 34.2108 26.8058 0.802396 -0.617447 0.0127833
10 1 12.5187 32.2311 26.2244 0.49667 0.936819 -0.166382
11 1 12.7967 32.5648 27.1127 -0.291735 1.60891 -1.34628
12 2 13.5968 32.4743 26.5726 0.160748 -0.521383 0.0838443
13 2 13.7428 32.8021 25.6887 -0.364916 -0.60816 -0.821205
14 1 12.9359 33.2345 25.9074 -0.933872 0.337682 -0.387501
15 1 13.0507 34.1071 25.4303 0.772772 0.957258 0.111895
16 2 12.2614 33.9669 26.0122 1.09762 0.923461 0.469194
ITEM: TIMESTEP
50000
ITEM: NUMBER OF ATOMS
20
ITEM: BOX BOUNDS pp pp pp
0.0000000000000000e+00 3.5000000000000000e+01
0.0000000000000000e+00 3.5000000000000000e+01
0.0000000000000000e+00 3.5000000000000000e+01
ITEM: ATOMS id type xu yu zu vx vy vz
1 1 12.7104 33.3448 27.825 -0.613727 0.335547 0.908155
7 3 11.2036 31.7528 26.1785 0.175286 -0.665079 1.25119
2 2 11.9835 33.8229 27.4169 -1.6536 0.208507 -0.629632
8 3 11.8042 31.0038 26.2114 -0.284904 -0.270772 -0.49636
4 4 11.3791 32.5793 27.0427 -1.02545 0.610681 -0.547392
5 1 11.2394 33.2469 26.3355 0.395112 0.0295512 -0.247469
6 2 11.7545 32.5274 25.9804 1.43009 -1.2785 0.4141
3 4 11.7245 33.0601 27.8878 0.988994 0.516692 0.449319
9 2 11.5381 31.3232 27.098 2.03685 0.945744 0.329957
12 2 12.3488 32.9463 26.6347 0.413243 0.853728 -1.61477
11 1 12.9445 32.4438 27.2647 0.477186 -0.94921 -0.0179325
10 1 12.1213 31.9861 27.5186 -0.0789173 0.279937 -1.39727
19 1 12.2169 33.2639 25.0608 1.56183 -0.580343 1.68798
20 2 11.9628 34.1662 24.698 0.523972 1.63501 -0.971699
18 4 12.5211 32.3857 24.6391 -1.67782 1.40055 -0.425286
17 3 13.2127 32.2858 25.3169 -1.2311 0.0390788 0.530566
13 2 12.036 33.8113 26.2368 0.0148276 -1.1104 -0.16971
14 1 12.9105 33.5009 25.7806 -0.487026 -0.399084 1.34546
15 1 13.6399 33.5147 26.4578 -0.801666 -0.937194 -0.833894
16 2 13.3521 32.6256 26.1998 -0.163186 -0.664442 0.434687
ITEM: TIMESTEP
60000
ITEM: NUMBER OF ATOMS
20
ITEM: BOX BOUNDS pp pp pp
0.0000000000000000e+00 3.5000000000000000e+01
0.0000000000000000e+00 3.5000000000000000e+01
0.0000000000000000e+00 3.5000000000000000e+01
ITEM: ATOMS id type xu yu zu vx vy vz
10 1 12.2736 33.2572 26.2095 0.692729 0.0960803 1.10767
11 1 12.6097 34.0559 25.9735 0.220089 2.47935 -0.712496
4 4 12.8709 31.568 27.9418 0.477988 -0.855339 -0.260928
5 1 13.4245 32.3221 28.0592 -0.541973 -0.774486 2.28493
9 2 11.8951 33.3288 27.0943 -1.73081 -1.12302 -1.4508
8 3 11.8108 32.4458 27.4075 0.480149 -1.0339 0.107108
7 3 12.6189 32.0147 27.0355 -0.566975 0.595257 1.86382
6 2 12.9744 32.8321 27.3597 -0.763538 0.999647 0.356264
19 1 13.3799 32.7031 24.6214 0.0886324 -1.66773 -0.989429
12 2 11.76 34.5445 26.2733 -0.229198 -1.70318 -0.146163
13 2 11.0725 34.3703 25.5465 0.224709 1.09075 0.128909
3 4 12.0603 31.6363 28.4738 1.73865 1.32593 -0.252099
14 1 11.2014 33.4097 25.4927 0.590686 -1.0315 -0.442958
2 2 12.1459 32.547 28.689 1.50481 -0.972586 0.639427
20 2 12.5142 33.0999 24.6008 -0.0105649 0.817058 0.139434
18 4 13.1053 31.8454 24.3469 0.696918 0.0344582 -0.397958
17 3 12.2874 31.4327 24.1792 -1.16682 0.188334 -1.46521
15 1 11.2174 32.8661 24.672 0.267267 1.13121 0.679713
16 2 11.8159 32.1118 24.6986 -0.889326 -0.529326 -0.989129
1 1 11.5657 33.2 29.1089 -1.08343 0.933001 -0.200101
ITEM: TIMESTEP
70000
ITEM: NUMBER OF ATOMS
20
ITEM: BOX BOUNDS pp pp pp
0.0000000000000000e+00 3.5000000000000000e+01
0.0000000000000000e+00 3.5000000000000000e+01
0.0000000000000000e+00 3.5000000000000000e+01
ITEM: ATOMS id type xu yu zu vx vy vz
14 1 10.4662 31.9016 25.3782 1.3379 -0.184979 0.526453
19 1 10.6295 33.7351 25.5779 -1.00162 0.979189 0.444917
15 1 9.54776 31.9513 25.7411 -0.748881 -0.773338 0.64778
18 4 10.7235 33.2414 26.3918 -1.34339 0.77792 -0.0763736
17 3 10.0342 32.6604 26.6996 -0.143984 0.0550034 0.451673
16 2 9.16204 32.4126 26.4874 0.793747 -0.294724 -1.91624
20 2 9.90053 33.0914 25.4112 -0.292907 0.584965 1.24882
13 2 10.944 32.7115 25.2734 -0.190434 0.016182 0.113597
10 1 12.0697 31.7095 26.5607 -0.173843 0.82401 -0.104506
11 1 11.8362 31.6612 25.6167 2.21384 1.53072 -1.49759
12 2 11.7179 32.581 25.9102 1.03117 -1.7996 -0.319696
9 2 12.9817 31.5503 26.8606 -1.23769 -0.0523877 0.524504
5 1 14.035 33.3266 26.083 0.218614 -0.722535 1.34903
4 4 14.8452 32.9413 26.4765 -0.0423299 0.419106 -0.00761615
8 3 13.5541 31.5802 27.5748 0.70211 1.27579 0.950893
7 3 13.8818 32.3722 27.33 1.37129 -1.26944 -1.51319
6 2 13.5348 33.0433 26.8099 -2.48206 -0.0645578 0.79904
3 4 15.2412 33.5365 27.1306 -0.508136 -1.30702 -0.382827
2 2 15.1383 34.4803 27.1698 0.887159 0.189629 -0.295792
1 1 14.3603 35.1039 27.3007 -0.390549 -0.183934 -0.942877
ITEM: TIMESTEP
80000
ITEM: NUMBER OF ATOMS
20
ITEM: BOX BOUNDS pp pp pp
0.0000000000000000e+00 3.5000000000000000e+01
0.0000000000000000e+00 3.5000000000000000e+01
0.0000000000000000e+00 3.5000000000000000e+01
ITEM: ATOMS id type xu yu zu vx vy vz
19 1 11.5311 33.1231 26.703 0.972257 0.34671 -0.35134
20 2 10.8161 32.4779 26.983 0.64399 1.57315 0.307171
18 4 11.3629 33.8797 26.1733 -0.124588 0.199537 -2.04639
17 3 10.5697 33.283 26.1758 -1.36648 0.346614 -1.15133
14 1 12.2143 31.4356 25.1851 -0.0699038 0.552144 0.135035
15 1 11.4657 32.0238 25.2792 0.767923 -0.0519503 0.14539
16 2 11.2031 32.908 25.5654 -1.38305 0.623304 -0.109412
13 2 11.6812 31.3636 26.029 0.164794 -1.86421 0.864431
11 1 11.7806 32.1253 27.2359 -0.0413434 -0.693429 0.97392
12 2 11.1055 31.538 26.7946 -0.20361 -0.734939 0.750882
10 1 12.3899 32.8718 27.317 -0.395701 -1.12263 0.597211
1 1 12.3953 32.3084 26.4236 -1.21969 -0.424157 1.81292
9 2 12.9713 32.8174 28.1036 0.685954 -2.73039 -2.39305
5 1 13.7452 33.4151 25.6169 1.33547 1.22709 0.428429
4 4 12.8301 33.6814 25.5383 -1.41112 1.4005 -0.512931
8 3 13.2195 33.4583 27.3904 0.539872 -0.22475 0.0905787
7 3 13.6304 33.9455 26.7084 0.937339 0.307194 -1.03428
6 2 13.9657 33.0657 26.4531 -0.200963 0.0494238 1.39798
3 4 12.8454 33.2563 26.4176 -0.478497 1.2267 -0.114784
2 2 12.8807 32.6137 25.6909 0.847352 -0.00589527 0.209576
ITEM: TIMESTEP
90000
ITEM: NUMBER OF ATOMS
20
ITEM: BOX BOUNDS pp pp pp
0.0000000000000000e+00 3.5000000000000000e+01
0.0000000000000000e+00 3.5000000000000000e+01
0.0000000000000000e+00 3.5000000000000000e+01
ITEM: ATOMS id type xu yu zu vx vy vz
16 2 11.8384 32.7631 27.061 -1.7801 0.078295 0.696471
18 4 11.2133 33.2071 27.6253 0.508835 -0.0938229 1.11349
17 3 12.0598 32.8201 28.0192 -0.205963 -0.491558 -0.753468
9 2 11.5717 31.7281 25.4493 0.950007 -2.09033 -0.839161
11 1 10.978 32.6602 26.5776 0.731295 0.405563 -0.448666
15 1 12.7959 32.9766 27.1957 0.57564 1.82986 -0.403421
13 2 12.135 34.1878 26.2831 2.13237 0.689213 0.0641151
14 1 12.8265 33.4877 26.373 0.189215 -0.680752 -0.268805
1 1 13.713 32.6995 26.1653 0.500224 -1.67545 0.247768
19 1 11.4438 34.1899 27.4199 -2.03623 0.358617 -0.0354774
20 2 10.5014 33.9822 27.2408 1.4456 -1.21774 0.714522
8 3 11.5343 32.5828 24.9777 -1.43696 1.0314 0.475547
12 2 11.3712 33.6304 26.5226 0.134849 -0.367698 -0.392256
10 1 11.7782 32.535 26.0368 -1.57596 0.471805 0.936045
5 1 12.522 32.1319 26.6563 -0.298306 -0.150078 0.729702
4 4 13.3255 31.5755 26.5085 -0.605975 1.76593 0.127212
7 3 12.3346 32.1119 24.8697 1.87245 0.350584 -0.877665
6 2 12.8301 32.3219 25.7715 -0.728168 -0.52652 -1.175
3 4 13.7303 31.5939 25.6945 0.179893 1.48636 0.845983
2 2 14.1009 32.406 25.336 -0.552705 -1.17369 -0.756942
ITEM: TIMESTEP
100000
ITEM: NUMBER OF ATOMS
20
ITEM: BOX BOUNDS pp pp pp
0.0000000000000000e+00 3.5000000000000000e+01
0.0000000000000000e+00 3.5000000000000000e+01
0.0000000000000000e+00 3.5000000000000000e+01
ITEM: ATOMS id type xu yu zu vx vy vz
20 2 11.2621 35.4263 25.5171 -0.0213299 -0.604298 -2.55995
1 1 12.7213 32.0992 28.0967 -0.675468 1.26236 -1.59054
3 4 12.9268 30.9463 26.6698 -0.506097 -0.378341 -0.654264
2 2 12.6873 31.5389 27.3628 1.16311 -0.455412 0.279131
19 1 10.7708 34.6632 25.9664 -0.331309 0.426385 0.0447628
16 2 12.3619 34.8406 27.1565 -0.44822 1.81325 1.22756
13 2 12.6215 33.0521 27.1119 0.331114 0.399481 0.99349
17 3 11.5957 35.1903 26.6496 -1.0622 1.14095 -0.630522
12 2 12.6126 32.295 26.5784 0.265818 -1.21895 0.625394
15 1 13.1297 34.6347 27.7659 2.87073 -0.627958 0.0536266
14 1 12.988 33.8865 27.182 -1.10157 -1.17003 0.962533
5 1 12.473 30.7751 25.1101 1.23756 -1.39257 -1.30461
4 4 12.3726 30.4432 26.0455 0.620735 1.12185 -2.00649
11 1 13.0886 32.4385 25.7355 0.00235268 0.636665 1.10221
18 4 11.5629 34.2516 26.3354 -0.65959 0.0931708 0.897912
10 1 12.5206 33.2513 25.9132 0.49648 -1.07582 -0.143552
9 2 11.7573 32.5797 25.7028 -0.842432 0.662001 1.22929
8 3 12.1543 31.684 25.7195 0.313636 0.329582 1.05483
7 3 11.453 31.0772 25.9879 -0.794748 -0.59137 0.901767
6 2 11.5438 30.5178 25.177 -0.858578 -0.370948 -0.482578
ITEM: TIMESTEP
110000
ITEM: NUMBER OF ATOMS
20
ITEM: BOX BOUNDS pp pp pp
0.0000000000000000e+00 3.5000000000000000e+01
0.0000000000000000e+00 3.5000000000000000e+01
0.0000000000000000e+00 3.5000000000000000e+01
ITEM: ATOMS id type xu yu zu vx vy vz
13 2 11.5422 33.8345 26.9993 -0.839766 -0.00985485 2.06372
2 2 12.3459 29.989 25.4758 -2.56367 -0.982596 0.0950041
19 1 13.7642 36.5095 28.0097 0.370088 -0.918237 -1.38435
20 2 12.8422 36.4586 27.7924 -1.81276 0.0019241 1.22671
15 1 12.7645 34.1837 27.7246 -1.31715 -1.91673 1.95447
14 1 12.4887 33.5039 27.0286 1.89278 0.690538 -0.16328
18 4 13.3349 35.5573 28.2323 -0.162567 0.316581 -0.261094
17 3 13.6028 35.0286 27.4393 1.39556 2.4432 -0.77898
16 2 13.4957 34.2049 27.1012 1.07991 -0.511309 -0.154125
12 2 11.116 33.0551 26.6658 -0.791347 1.74696 -1.23327
5 1 10.8145 31.841 25.4073 -0.318878 -0.0445942 1.62826
7 3 12.3837 31.2645 24.9123 1.75413 1.45712 0.385362
6 2 11.5083 31.7049 24.7513 -1.18098 0.508673 -0.278987
8 3 11.9041 31.1497 25.7399 0.175291 -1.14217 -0.0198692
9 2 11.5593 31.8558 26.2269 1.21121 0.205213 -1.27044
1 1 12.8758 29.2023 25.6787 0.161061 -0.327346 0.369918
3 4 11.4742 30.2707 25.1726 -0.192546 -1.82718 -0.622077
4 4 10.8151 30.8743 25.5063 0.947762 0.396191 0.0260323
11 1 12.0117 32.7464 26.4122 -1.08382 0.0859577 -0.412809
10 1 11.96 32.3569 25.5075 1.27568 -0.172346 -1.1702
ITEM: TIMESTEP
120000
ITEM: NUMBER OF ATOMS
20
ITEM: BOX BOUNDS pp pp pp
0.0000000000000000e+00 3.5000000000000000e+01
0.0000000000000000e+00 3.5000000000000000e+01
0.0000000000000000e+00 3.5000000000000000e+01
ITEM: ATOMS id type xu yu zu vx vy vz
4 4 12.0346 33.4019 27.2627 0.199393 -1.32819 -1.17968
6 2 11.1204 34.2637 27.5891 1.93796 0.00990365 -0.77171
7 3 10.5837 34.1589 26.8143 -1.31729 0.40468 -0.222867
8 3 10.8564 33.2696 27.0122 -1.2177 0.278704 0.0589414
9 2 10.9549 32.6211 26.2427 0.789635 -0.646919 0.623275
5 1 12.0353 34.1358 27.9331 -0.0223462 0.407567 0.419305
13 2 11.5527 31.2165 26.5599 0.893511 0.413767 -0.547915
15 1 12.829 32.0376 26.4685 0.153355 -0.468059 -0.840379
14 1 12.4511 31.1366 26.2026 -0.0102672 0.539549 0.0631146
3 4 11.7631 33.4272 26.2526 -0.978636 0.394969 3.03264
2 2 11.9877 32.7442 25.5245 0.636599 0.687217 -0.019206
1 1 12.7626 32.369 25.0078 1.01555 -0.64208 0.426499
20 2 13.8569 32.8206 24.6788 0.261183 0.108999 0.215626
19 1 13.4454 33.7365 24.7016 0.269321 -0.0426964 -0.151006
18 4 13.8088 33.4353 25.5251 -1.56764 -1.52269 0.4548
17 3 14.0909 32.6003 25.9241 -0.438195 0.814143 -0.213098
12 2 11.2335 31.406 27.4296 0.691615 1.47733 -0.681705
16 2 13.351 32.8852 26.498 -1.07506 -0.666557 -0.335343
11 1 12.1992 31.6446 27.3658 -0.0934316 0.564914 -0.21003
10 1 11.6865 32.2809 26.791 -0.127544 -0.784546 -0.121269
ITEM: TIMESTEP
130000
ITEM: NUMBER OF ATOMS
20
ITEM: BOX BOUNDS pp pp pp
0.0000000000000000e+00 3.5000000000000000e+01
0.0000000000000000e+00 3.5000000000000000e+01
0.0000000000000000e+00 3.5000000000000000e+01
ITEM: ATOMS id type xu yu zu vx vy vz
4 4 11.4439 32.1151 27.5204 1.78401 0.85194 0.820037
6 2 10.9846 31.2622 26.9112 1.05668 0.393983 0.603977
3 4 11.6354 33.0508 27.3702 -1.47036 -0.430746 0.711858
2 2 12.3875 32.625 27.7202 2.16155 -0.917738 -0.483759
1 1 13.3063 32.5162 28.1341 -1.41674 0.709167 0.475127
17 3 13.0987 34.46 24.768 -1.05077 2.18834 0.458089
8 3 10.8379 32.3604 26.651 -0.734206 0.0741022 -1.19572
7 3 10.2732 31.9025 27.2027 -0.0298232 1.36067 -0.0756323
10 1 12.364 32.1037 26.1306 -2.17163 -0.336106 0.662019
11 1 12.9492 32.4189 26.8376 1.24042 0.0852685 -0.27832
5 1 11.5656 31.1971 27.6887 -0.348618 -0.683533 0.302474
9 2 11.6645 32.7044 26.2232 -2.02102 0.15025 0.889939
12 2 13.1342 33.3439 26.67 1.12792 -0.621957 -0.0550553
13 2 13.1942 32.9712 25.7473 -1.14247 -1.2559 0.230595
14 1 12.8824 32.3062 25.1492 1.27783 -0.492593 -1.01039
20 2 12.2384 33.4359 25.6668 -0.443436 -0.230759 -0.746913
15 1 12.363 32.8665 24.6317 1.72475 0.197972 -1.55998
19 1 12.2119 34.3426 26.1456 0.107573 -1.22225 -0.591614
18 4 13.0331 34.1012 25.715 0.248638 -0.119881 0.210197
16 2 13.0357 33.5077 24.9005 0.0997042 0.299762 0.63307
ITEM: TIMESTEP
140000
ITEM: NUMBER OF ATOMS
20
ITEM: BOX BOUNDS pp pp pp
0.0000000000000000e+00 3.5000000000000000e+01
0.0000000000000000e+00 3.5000000000000000e+01
0.0000000000000000e+00 3.5000000000000000e+01
ITEM: ATOMS id type xu yu zu vx vy vz
8 3 10.0542 32.7587 26.0625 -1.15061 0.466125 1.99501
7 3 10.867 32.4101 25.7227 0.232303 -0.404862 -0.879504
10 1 11.3332 33.4074 26.9177 -0.379289 0.933735 1.77904
11 1 12.1318 32.9291 26.6964 -0.508095 1.24449 -0.664213
4 4 12.1382 34.2652 25.5653 -0.88246 0.572798 -0.206104
6 2 11.8039 32.5615 25.6878 1.1708 1.57607 -1.58978
9 2 10.7508 33.4777 26.1307 -0.950235 -0.399844 -0.289983
12 2 12.5213 32.1565 27.0812 2.9053 -0.588259 -1.04161
3 4 11.2545 34.5385 25.7691 0.334118 0.227179 -0.041762
2 2 11.4467 34.5887 26.7267 -0.474455 -0.607942 0.0181855
1 1 11.722 34.2905 27.6671 0.237643 -1.06413 -1.29652
5 1 12.295 33.3189 25.4257 1.38445 -0.615976 1.03939
17 3 13.889 31 26.0203 -0.352356 -0.632365 -0.173384
13 2 13.0112 32.6731 27.778 0.00329062 -1.14075 -1.68733
14 1 13.8044 32.4511 27.3088 -1.66451 -0.117857 0.537096
20 2 12.4829 31.6535 25.6658 0.472684 -0.375434 0.938877
15 1 13.4808 31.6098 27.4848 0.508164 1.60574 0.758179
19 1 12.9062 32.5191 25.7651 -0.484822 0.685027 0.487567
18 4 13.4937 31.7889 25.6486 0.967992 -0.642543 0.987909
16 2 13.2168 31.1931 26.6595 -1.36992 -0.721218 -0.671062
ITEM: TIMESTEP
150000
ITEM: NUMBER OF ATOMS
20
ITEM: BOX BOUNDS pp pp pp
0.0000000000000000e+00 3.5000000000000000e+01
0.0000000000000000e+00 3.5000000000000000e+01
0.0000000000000000e+00 3.5000000000000000e+01
ITEM: ATOMS id type xu yu zu vx vy vz
7 3 11.2743 33.6788 26.9767 -1.25921 -0.258094 -0.593742
8 3 12.2211 33.8025 27.3179 0.314016 -0.645575 0.114135
9 2 13.0276 34.0585 26.7765 0.707912 0.763618 -1.85169
10 1 12.3442 34.1748 26.0744 0.618119 -0.259622 0.661081
11 1 12.1302 33.2611 26.3494 -0.71792 -0.682429 -1.4392
12 2 11.537 32.453 26.3649 1.21383 -1.19068 0.0155234
6 2 11.0743 33.5682 26.0412 -0.387942 1.27984 0.485667
13 2 12.3317 31.9726 26.5023 -0.884806 -1.15764 -0.348327
2 2 12.1432 32.3499 25.4664 1.64221 -1.88445 0.661421
1 1 12.4942 33.1652 25.0201 0.711558 0.512474 -0.444675
4 4 10.9631 33.0136 24.3079 0.283178 0.111659 2.15721
3 4 11.7373 32.5971 24.5956 -0.397927 0.894237 0.440104
5 1 11.3992 33.4712 25.1212 -0.0431342 0.798216 0.0486394
17 3 13.8107 31.7071 27.2634 -0.541587 0.818749 0.757707
14 1 11.779 31.3645 27.0422 -0.585533 -0.507494 -0.390441
20 2 12.3898 32.8062 27.5852 0.0885475 -0.0656654 1.44206
15 1 12.2954 31.8456 27.73 -1.8077 0.302103 1.25267
19 1 13.3634 32.545 27.5956 0.0162009 0.288508 -0.931002
18 4 13.4453 32.3952 26.5876 0.0916609 0.652418 -0.875582
16 2 12.8429 31.3616 27.0656 0.938532 0.229838 -1.16156
ITEM: TIMESTEP
160000
ITEM: NUMBER OF ATOMS
20
ITEM: BOX BOUNDS pp pp pp
0.0000000000000000e+00 3.5000000000000000e+01
0.0000000000000000e+00 3.5000000000000000e+01
0.0000000000000000e+00 3.5000000000000000e+01
ITEM: ATOMS id type xu yu zu vx vy vz
4 4 12.3651 32.6406 25.4518 0.39963 0.426525 0.326619
5 1 11.6473 32.1922 25.982 0.812368 0.327577 -1.33543
3 4 11.641 33.2192 25.6099 -0.32735 -0.305031 -0.724217
7 3 10.6436 31.9802 25.836 -0.488809 -1.4376 -0.61047
2 2 11.5984 33.0783 26.6018 -0.0161258 0.121265 -2.2204
1 1 12.3485 32.9234 27.1655 -0.613035 -1.63882 1.04001
8 3 11.1552 31.1369 25.3807 -0.935043 -0.463632 0.681958
6 2 11.1946 31.5432 26.5172 -0.548649 -0.148262 0.220243
9 2 11.9788 31.6039 25.0089 -1.77896 0.279614 -1.81826
10 1 12.2925 30.78 25.3567 -0.420158 0.155928 0.885481
11 1 12.2849 31.3772 26.1319 0.865209 -1.731 0.762318
12 2 12.602 32.1011 26.623 0.713718 0.820421 0.508621
13 2 13.5433 31.9647 26.3 0.422659 1.48401 0.080069
17 3 12.3899 33.848 26.2998 0.0110518 0.550895 0.118327
14 1 13.4548 32.4962 27.115 -0.0629564 -0.296779 0.650544
20 2 11.8718 35.7687 27.3631 0.389636 -0.592893 0.684115
15 1 13.1385 33.1377 27.7552 0.61126 0.177131 -0.55224
19 1 12.8196 35.4123 27.4086 0.717482 2.19788 0.415938
18 4 12.6363 34.655 26.8482 0.0671035 -0.0497469 -0.0094444
16 2 12.9977 33.7329 27.0285 0.18097 0.122514 0.89622
ITEM: TIMESTEP
170000
ITEM: NUMBER OF ATOMS
20
ITEM: BOX BOUNDS pp pp pp
0.0000000000000000e+00 3.5000000000000000e+01
0.0000000000000000e+00 3.5000000000000000e+01
0.0000000000000000e+00 3.5000000000000000e+01
ITEM: ATOMS id type xu yu zu vx vy vz
8 3 10.614 32.3742 25.6871 -0.484503 1.10416 -0.910966
6 2 9.7671 32.031 26.2431 0.678281 -0.0859971 1.69186
7 3 9.77086 32.8954 25.7216 0.449794 -1.14463 -0.46563
5 1 10.5177 32.2089 26.719 -0.995252 -0.524035 -0.105941
11 1 11.72 32.403 26.905 1.04328 0.257597 1.89819
12 2 12.4886 32.8394 27.1446 -0.51335 0.414382 -1.38714
9 2 11.2199 31.8219 26.1345 0.734801 0.412323 -1.37873
10 1 12.1378 31.9288 26.1087 -2.33425 -0.308393 -0.0991437
3 4 11.2812 33.5122 25.9028 -0.347567 0.378724 -0.845172
4 4 10.5721 33.1846 26.4785 -0.076683 -0.317202 0.478147
15 1 13.3927 32.4528 27.289 -0.0426391 -0.850221 2.26418
2 2 12.1191 33.0047 26.0134 0.493157 0.527243 -0.259274
1 1 11.7057 32.4445 25.32 0.476872 -0.0264149 0.361712
16 2 14.2785 32.5739 27.4221 -0.871818 -0.524257 -0.692241
20 2 13.1352 33.4236 25.6275 -0.352534 0.676966 -0.276156
19 1 14.1003 33.0042 25.6716 1.50394 0.0843793 -0.967058
14 1 13.6508 33.3572 27.6154 0.244437 0.337405 0.229877
13 2 13.257 33.2257 26.7618 0.789124 -0.471718 0.304291
17 3 14.6988 33.1744 26.8115 -0.119114 1.13105 -1.19939
18 4 14.1763 33.7311 26.2069 -0.275976 -1.07137 1.35859
ITEM: TIMESTEP
180000
ITEM: NUMBER OF ATOMS
20
ITEM: BOX BOUNDS pp pp pp
0.0000000000000000e+00 3.5000000000000000e+01
0.0000000000000000e+00 3.5000000000000000e+01
0.0000000000000000e+00 3.5000000000000000e+01
ITEM: ATOMS id type xu yu zu vx vy vz
3 4 11.4225 33.1542 25.0743 1.38547 0.1262 -0.791376
4 4 10.5964 32.9086 24.6354 -0.761515 0.293885 2.17778
2 2 11.2937 33.4082 26.0443 0.696874 -0.262285 -0.076842
1 1 11.3345 34.3482 25.8183 2.03331 -0.91774 -0.101785
20 2 10.3206 33.7602 27.8486 -0.629109 0.384075 0.26406
19 1 10.253 33.852 26.8925 0.964364 -0.156376 -1.16897
5 1 10.931 32.1055 25.0632 -2.59834 0.148646 -1.70579
6 2 11.7706 32.1923 25.5382 -0.20404 -1.42646 0.24818
7 3 11.6954 31.5382 26.327 0.185174 0.394224 -1.45089
16 2 13.0436 33.056 26.9712 -1.07245 -0.189193 1.63921
17 3 12.1157 33.3836 27.2223 0.0805212 -0.521809 1.27651
18 4 11.135 33.3825 27.205 -0.244331 -0.849231 -1.09148
8 3 12.6084 31.6407 26.0771 0.879636 0.997554 0.898443
9 2 13.0441 32.4075 25.856 -0.640818 0.0974329 0.358598
10 1 13.8969 32.1808 25.3512 -1.85271 -1.32042 -2.33381
11 1 14.329 32.5829 26.135 -0.245047 1.9837 1.49272
12 2 14.0333 31.7962 26.6129 -0.210199 0.821751 -0.10486
15 1 13.4981 33.2189 27.8371 0.297028 0.670691 -0.0670167
14 1 13.3612 32.2164 28.031 1.41025 0.0748701 -0.338729
13 2 13.9208 32.4585 27.2433 0.525936 -0.349513 0.876039
ITEM: TIMESTEP
190000
ITEM: NUMBER OF ATOMS
20
ITEM: BOX BOUNDS pp pp pp
0.0000000000000000e+00 3.5000000000000000e+01
0.0000000000000000e+00 3.5000000000000000e+01
0.0000000000000000e+00 3.5000000000000000e+01
ITEM: ATOMS id type xu yu zu vx vy vz
4 4 11.1868 32.1188 26.7006 0.156778 -0.233146 -1.30546
7 3 10.2195 33.231 27.0974 -1.07576 0.0312046 1.46479
3 4 11.9201 31.7343 27.0802 0.0413731 -1.64876 0.0358208
5 1 11.4979 32.7104 26.0235 1.22685 0.585038 -0.24555
6 2 10.974 33.2718 26.5305 -0.537573 -1.34675 0.371304
8 3 10.7937 32.6703 27.5769 0.0233691 -0.32504 -0.293126
9 2 11.6489 33.0171 27.7792 -1.43875 0.556608 -0.835649
12 2 12.0017 33.327 25.4094 0.0306826 -0.392638 0.310146
13 2 12.8449 33.1408 24.9739 -0.507322 1.65355 -0.600942
2 2 12.5897 32.2896 27.4407 1.84801 1.35971 1.52125
1 1 13.1426 33.1428 27.3769 1.44451 -0.915822 0.0268595
10 1 12.1455 33.4507 27.0548 -0.327447 -0.241096 -1.131
20 2 13.9 33.1254 25.1573 0.601652 -0.521629 0.521631
19 1 13.6904 32.4916 25.8207 0.272214 -1.58293 -0.0398726
18 4 12.937 32.0369 25.3294 -0.640963 1.14368 0.83432
16 2 12.8362 32.0228 26.4127 -0.262127 -0.0885584 0.162878
17 3 12.4452 31.4513 25.8166 -1.21003 -0.135836 0.782894
11 1 11.9817 33.8577 26.1479 -0.67989 1.64567 -0.526663
15 1 12.6568 32.909 26.2337 0.512982 0.79958 -0.841356
14 1 13.1912 33.5924 25.8218 0.521441 -0.342842 -0.21228
ITEM: TIMESTEP
200000
ITEM: NUMBER OF ATOMS
20
ITEM: BOX BOUNDS pp pp pp
0.0000000000000000e+00 3.5000000000000000e+01
0.0000000000000000e+00 3.5000000000000000e+01
0.0000000000000000e+00 3.5000000000000000e+01
ITEM: ATOMS id type xu yu zu vx vy vz
7 3 11.2703 31.3876 26.2358 -0.183428 -0.0166167 0.873033
3 4 10.5213 32.0909 26.436 -1.14857 1.04084 -0.669937
6 2 11.6388 31.0051 25.4341 -0.719726 -1.90618 1.35036
4 4 10.7916 32.0141 25.5032 -1.11399 0.461366 -0.706382
5 1 10.7377 31.0277 25.1414 1.60215 -1.222 -1.012
2 2 11.1076 32.9028 26.3835 -0.0213176 -1.34346 -0.531984
8 3 11.6911 31.5192 27.071 -0.8653 -0.236143 0.965418
9 2 12.5151 31.9852 26.9576 -1.44776 -0.526609 1.93875
1 1 11.1515 33.8115 26.7635 -0.676901 1.37931 -1.13176
10 1 13.0848 31.5331 27.6108 -0.451583 -1.41318 -1.25341
11 1 13.5417 32.224 28.0403 0.847562 1.25782 1.73226
12 2 14.2349 31.9176 27.3686 0.594423 1.02045 -0.850754
13 2 14.282 32.5195 26.6801 0.962058 -0.435176 -1.11599
19 1 12.2288 35.6174 25.188 -0.553202 1.88607 -0.633436
18 4 12.1038 34.8467 25.7249 0.0726172 -1.29364 0.382064
16 2 12.8156 33.4551 26.6802 0.657921 -0.962831 -0.581174
17 3 12.2468 34.1645 26.3556 0.59431 -0.177076 0.217274
15 1 12.9333 33.1357 25.7599 -0.115984 0.383552 0.492457
14 1 13.3604 32.559 26.342 1.29721 0.521441 -1.42784
20 2 12.3468 35.8749 26.1074 0.669509 1.58205 1.96307
ITEM: TIMESTEP
210000
ITEM: NUMBER OF ATOMS
20
ITEM: BOX BOUNDS pp pp pp
0.0000000000000000e+00 3.5000000000000000e+01
0.0000000000000000e+00 3.5000000000000000e+01
0.0000000000000000e+00 3.5000000000000000e+01
ITEM: ATOMS id type xu yu zu vx vy vz
7 3 12.2398 34.7277 26.9128 0.261804 -0.539068 0.929765
4 4 11.3905 33.0972 25.2524 1.8531 0.864882 -0.205509
5 1 11.0896 33.9441 25.6967 0.438403 1.06036 -1.78071
6 2 11.6734 34.3933 26.1978 0.732552 -0.146524 -0.0283905
2 2 10.5049 32.902 26.5873 2.13876 -0.294567 0.294539
1 1 11.0469 33.6412 26.7822 -0.448848 1.70982 1.59552
3 4 10.7641 32.6238 25.731 -2.00928 -2.08757 0.54857
8 3 12.8522 34.4963 26.1779 -2.05355 0.117967 1.27031
11 1 12 33.2287 27.4272 1.83185 0.421773 -0.722335
15 1 12.0843 31.299 26.2946 0.388772 -0.301611 0.677088
14 1 12.1575 32.226 25.8632 -2.51102 0.781294 0.14643
10 1 12.6341 33.6751 26.9248 0.651324 -1.11991 1.06268
12 2 11.6147 32.5118 26.949 1.15881 0.740589 -2.59766
9 2 12.7744 33.5461 26.0226 -1.52562 -1.43096 -1.20479
13 2 11.7666 33.0737 26.1987 0.124305 -0.804092 -1.41311
19 1 14.1544 31.8763 26.4366 -1.36099 0.0386936 0.269137
20 2 13.3867 32.0215 26.9017 -2.21706 1.04054 0.640532
18 4 13.8984 31.1181 27.0159 2.48565 -1.58293 0.260683
16 2 12.7839 30.6195 26.2097 -0.515733 0.60692 0.201753
17 3 13.7875 30.5703 26.2017 0.576753 0.924393 0.0554875
ITEM: TIMESTEP