ITEM: TIMESTEP
0
ITEM: NUMBER OF ATOMS
20
ITEM: BOX BOUNDS pp pp pp
0.0000000000000000e+00 3.5000000000000000e+01
0.0000000000000000e+00 3.5000000000000000e+01
0.0000000000000000e+00 3.5000000000000000e+01
ITEM: ATOMS id type xu yu zu vx vy vz
18 4 8.97406 35.11 27.9415 -1.03458 -1.27511 1.01273
16 2 9.23292 33.7557 27.8518 -1.5027 1.00338 0.146604
17 3 8.49841 34.3882 27.5297 0.407599 -0.00777993 0.726273
14 1 10.8146 33.8399 27.4272 1.12132 0.312148 0.666475
13 2 11.366 33.2617 26.8793 1.40442 -2.13723 -0.628645
15 1 10.0588 33.2507 27.5856 -1.27915 0.189978 -0.522976
19 1 8.81643 34.4349 28.6377 -0.63164 -0.204467 0.0122177
4 4 15.1512 32.3304 24.0323 -0.105505 0.685678 -2.11642
6 2 15.5603 31.5612 25.1549 -1.19717 0.526759 0.716831
1 1 12.912 32.6407 24.7181 -1.69831 1.25786 0.779409
3 4 14.5731 32.1969 24.7483 0.838522 0.206808 -0.262926
2 2 13.854 32.8412 24.8204 0.780543 0.936838 -0.225182
5 1 16.0357 32.1773 24.5982 2.0823 -2.3872 -0.0482765
8 3 13.8166 30.8138 24.9794 -0.858965 -1.04219 -0.174263
7 3 14.7911 30.9722 25.2043 2.70381 -0.095434 0.500479
9 2 13.5141 31.1065 25.9155 0.07457 0.00940228 -0.252678
11 1 12.3068 32.1651 26.8601 1.33824 0.747062 0.945108
10 1 12.7121 31.5696 26.2721 -0.893993 -0.136844 -0.821547
12 2 12.2126 33.1224 27.341 -1.94507 -0.302271 -0.314273
20 2 9.40307 34.0528 29.2865 0.395758 1.71262 -0.138939
ITEM: TIMESTEP
1000
ITEM: NUMBER OF ATOMS
20
ITEM: BOX BOUNDS pp pp pp
0.0000000000000000e+00 3.5000000000000000e+01
0.0000000000000000e+00 3.5000000000000000e+01
0.0000000000000000e+00 3.5000000000000000e+01
ITEM: ATOMS id type xu yu zu vx vy vz
18 4 10.5908 32.8296 27.9765 0.996595 -1.04395 -0.0227225
16 2 11.134 32.3553 26.8195 0.908676 0.215951 0.499457
17 3 10.5804 31.961 27.4747 -2.6769 -0.352581 -1.51204
14 1 10.8962 33.3437 26.9547 -0.0557165 0.506916 0.288477
13 2 11.8715 33.3323 27.0301 0.436193 1.15266 0.410588
15 1 10.804 32.8955 26.0795 -0.67627 -0.898137 -0.500924
19 1 9.65958 33.173 27.8228 1.64125 -0.92899 -0.551526
4 4 13.1134 31.8791 26.0617 0.0116373 -0.360045 0.0623269
6 2 14.1117 32.9635 25.4594 2.94664 0.879298 -0.0107805
1 1 14.1738 31.855 24.9787 -2.0909 0.0882818 1.4853
3 4 12.766 31.0372 25.6973 -1.86252 2.11825 2.70139
2 2 13.4646 31.2487 24.9668 -0.925562 -0.752866 -1.16023
5 1 13.3558 32.3887 25.2516 1.3723 -0.637659 0.172088
8 3 13.4535 33.5072 26.6058 0.233685 -2.85349 -0.631006
7 3 14.3345 33.2614 26.3685 1.63028 1.0954 -1.8466
9 2 12.7953 34.1587 26.5125 -1.08933 1.65088 -0.521873
11 1 12.6337 33.0223 25.7749 -0.135721 -0.609585 -0.375302
10 1 12.4114 33.9497 25.7192 0.173721 0.883949 0.555585
12 2 12.0963 32.5116 26.4493 0.738742 0.652328 -0.130908
20 2 10.3572 33.918 27.7803 -1.5768 -0.806597 1.08871
ITEM: TIMESTEP
2000
ITEM: NUMBER OF ATOMS
20
ITEM: BOX BOUNDS pp pp pp
0.0000000000000000e+00 3.5000000000000000e+01
0.0000000000000000e+00 3.5000000000000000e+01
0.0000000000000000e+00 3.5000000000000000e+01
ITEM: ATOMS id type xu yu zu vx vy vz
18 4 11.6648 31.2388 26.7454 -1.32649 0.366125 0.992797
16 2 11.7267 32.208 27.0523 0.0248249 1.92 0.00557902
17 3 11.7688 31.9236 26.0625 -2.04896 0.299857 -0.0994226
14 1 11.0321 33.2448 26.4926 1.31099 0.645262 -1.23844
15 1 11.9558 33.013 26.6514 1.4134 0.0702007 0.0622222
19 1 10.7553 31.5426 26.9281 0.681086 -2.74702 -1.33172
20 2 10.7054 32.4946 27.2222 -0.754392 0.269258 -0.429213
13 2 11.642 34.0083 26.45 0.381427 -0.536415 -0.551303
4 4 12.6271 32.7714 25.8535 1.72724 0.323079 1.61743
6 2 13.0008 32.9115 24.367 -1.63306 0.381991 0.282312
1 1 13.8032 31.7673 27.3634 0.317242 -2.11512 -0.995926
3 4 12.9954 31.9352 25.6262 0.554044 -0.288156 0.923366
2 2 13.3168 31.8478 26.4772 2.75084 1.01841 0.924161
5 1 12.3304 32.5892 24.9666 -0.668479 0.775446 0.482095
8 3 13.4955 33.3926 26.0958 -1.55164 -0.844794 0.515127
7 3 13.4912 32.8783 25.2122 -0.657063 -0.285961 -0.583205
9 2 12.7579 33.8438 26.2796 -0.782534 0.404556 -1.18075
11 1 11.8128 33.7306 27.5276 -0.415945 0.207852 1.18924
10 1 12.6595 34.1051 27.1833 0.608545 0.753477 -0.0224957
12 2 11.0622 34.1452 27.2272 0.0689313 -0.618056 -0.56186
ITEM: TIMESTEP
3000
ITEM: NUMBER OF ATOMS
20
ITEM: BOX BOUNDS pp pp pp
0.0000000000000000e+00 3.5000000000000000e+01
0.0000000000000000e+00 3.5000000000000000e+01
0.0000000000000000e+00 3.5000000000000000e+01
ITEM: ATOMS id type xu yu zu vx vy vz
18 4 9.84496 31.9988 26.9908 -0.443118 0.864752 0.365108
14 1 11.5253 32.3162 26.722 0.964766 -0.609727 0.94844
19 1 9.98666 32.8617 26.7299 -0.535378 -0.660692 -1.4756
20 2 9.70184 33.2279 27.5631 2.49899 0.938701 1.12586
13 2 11.0314 33.2164 26.7791 -2.0165 0.708014 -0.0157144
12 2 11.7981 33.4623 27.406 0.818023 -1.23423 -0.0497201
16 2 10.454 31.2131 27.5715 -2.05742 -0.690623 0.25431
17 3 9.48433 31.415 27.6408 -0.943879 -0.691492 0.759632
15 1 11.2154 31.5033 27.0592 0.484298 0.93605 -0.704929
4 4 13.7121 31.9708 25.0162 1.20049 -0.318026 -0.479685
6 2 13.3144 33.011 24.9982 1.03925 0.634424 1.59091
1 1 15.7227 31.9217 25.6462 -0.425988 -1.57795 -0.37397
3 4 13.8648 32.1746 25.9618 -0.0333919 -0.544676 -1.17177
2 2 14.7996 32.0801 25.8886 -0.0312479 1.44568 0.726632
5 1 14.1642 32.7844 25.2905 0.578315 2.858 -0.157457
8 3 12.8515 34.6448 25.5407 -2.30063 -1.6699 0.63655
7 3 13.4084 34.0074 25.0989 0.772546 -0.552364 0.612023
9 2 13.0832 33.9155 26.112 -0.327785 0.719713 -0.117615
11 1 12.5106 34.0919 27.3603 1.0931 0.244394 -1.8066
10 1 12.1303 33.7749 26.4083 -0.334445 -0.800047 -0.666409
ITEM: TIMESTEP
4000
ITEM: NUMBER OF ATOMS
20
ITEM: BOX BOUNDS pp pp pp
0.0000000000000000e+00 3.5000000000000000e+01
0.0000000000000000e+00 3.5000000000000000e+01
0.0000000000000000e+00 3.5000000000000000e+01
ITEM: ATOMS id type xu yu zu vx vy vz
18 4 10.0825 32.6033 28.5514 -0.742238 0.465517 -0.369905
14 1 10.7704 32.746 26.6359 0.515465 -1.01654 -0.413314
19 1 10.132 31.7126 28.2487 0.102635 -0.841596 -2.59383
20 2 9.80453 31.4368 29.0672 0.626359 -1.3075 1.26719
13 2 10.7837 31.7557 26.3029 0.59008 1.83074 1.31018
16 2 9.86623 33.3807 27.6892 3.40944 1.5319 -0.452339
17 3 9.3425 33.2714 28.5062 -0.820266 0.638387 0.272004
15 1 10.6009 32.6739 27.5811 1.57305 0.527189 -0.394568
12 2 11.7528 31.601 26.3846 1.03845 -1.18228 0.382958
4 4 14.5232 33.6711 25.306 -1.89686 -0.399751 1.16497
6 2 13.675 34.5361 25.3116 -2.22666 0.164851 0.308595
1 1 15.8529 31.9511 24.3346 -1.37576 -0.268372 0.875251
3 4 14.5964 32.8651 24.695 1.104 -0.108221 -0.3451
2 2 14.9595 32.1139 24.2106 1.10682 0.691248 0.114571
5 1 14.28 34.357 26.0127 0.426764 -0.891153 -0.115491
8 3 13.149 33.4249 24.9575 -0.128334 0.253217 1.22374
7 3 13.4755 33.7324 25.806 0.930456 0.915434 -0.731238
9 2 12.6528 32.7388 25.5348 -1.32017 -1.47077 0.159735
11 1 11.6793 32.5319 26.1856 -1.28868 0.233558 0.41637
10 1 12.6245 32.4879 26.4625 -1.62456 0.234143 -2.07977
ITEM: TIMESTEP
5000
ITEM: NUMBER OF ATOMS
20
ITEM: BOX BOUNDS pp pp pp
0.0000000000000000e+00 3.5000000000000000e+01
0.0000000000000000e+00 3.5000000000000000e+01
0.0000000000000000e+00 3.5000000000000000e+01
ITEM: ATOMS id type xu yu zu vx vy vz
18 4 11.2948 32.4101 28.2229 2.2964 2.35434 1.82392
14 1 11.6865 32.8487 26.5718 0.333265 0.253177 0.483454
19 1 11.2919 33.1131 28.8285 -0.713436 -0.778331 0.358961
20 2 10.3475 33.1133 28.8135 0.287048 -0.0178242 0.917792
13 2 11.7374 33.1022 25.6732 -0.196132 -0.123393 -0.258901
16 2 12.2498 32.9185 27.6955 -0.699078 -0.501817 0.414263
17 3 12.1818 32.1471 28.1988 0.115766 -1.26681 1.35748
15 1 11.9041 32.1715 27.2049 0.0513739 -1.18721 -2.14191
11 1 10.9565 31.9214 25.7238 -0.918657 0.607477 -0.988895
12 2 11.6802 32.2764 25.0881 -0.376597 -0.946157 -1.30129
4 4 12.7012 33.4572 25.43 -1.12068 1.33012 -0.208591
6 2 12.1015 33.3196 24.5648 -0.865461 -0.975521 -1.6088
1 1 14.7852 34.1007 26.7769 1.79424 1.42803 0.748191
3 4 13.3999 33.0898 25.8792 -1.06524 -0.204348 0.616701
2 2 14.1838 33.5655 26.2054 -1.0704 -0.229365 1.52194
5 1 12.5456 34.1561 24.7982 1.61938 -2.21032 -0.919696
8 3 13.0272 32.0714 25.2557 0.94393 -1.22462 -0.337038
7 3 12.4973 32.4085 24.5172 -0.584716 1.12304 1.45716
9 2 12.4291 31.8987 26.0662 -0.68531 1.78277 -1.3725
10 1 11.6025 31.5017 26.2693 0.854312 0.786765 -0.562246
ITEM: TIMESTEP
6000
ITEM: NUMBER OF ATOMS
20
ITEM: BOX BOUNDS pp pp pp
0.0000000000000000e+00 3.5000000000000000e+01
0.0000000000000000e+00 3.5000000000000000e+01
0.0000000000000000e+00 3.5000000000000000e+01
ITEM: ATOMS id type xu yu zu vx vy vz
18 4 11.6882 33.1783 28.9448 0.193954 -0.626196 -1.17592
19 1 12.3671 32.5479 28.6758 -0.506641 1.3931 -0.7678
20 2 12.903 33.4115 28.8139 0.821129 -0.0971822 0.642653
11 1 11.4629 32.6149 26.3454 0.218816 -1.60277 1.80773
10 1 11.6928 32.2356 25.5144 -0.903743 0.724056 -0.114804
14 1 10.6617 33.1129 27.2385 1.18817 0.0426856 1.05035
13 2 10.4731 32.1996 27.0754 1.42829 -0.495696 -0.901106
16 2 10.2957 32.5923 28.021 -0.0923417 0.502011 -1.60865
17 3 11.2169 32.5953 28.4012 -1.59376 -0.0297711 -1.93734
15 1 9.83101 33.3254 27.6255 0.306325 -0.126422 0.221841
12 2 11.4186 32.2702 27.2299 1.06319 -0.352773 -0.290161
4 4 14.0831 33.4806 24.9672 -0.687001 0.552402 0.570598
6 2 13.7956 33.144 23.9063 -0.981327 -0.871556 0.909436
1 1 13.3476 33.1974 26.0122 -0.13082 -0.294472 -2.64046
3 4 13.5029 32.6711 24.9433 -0.626486 0.0649738 -1.13281
2 2 13.563 32.2668 25.77 0.795052 0.0483423 0.147008
5 1 14.5434 32.8412 24.4556 0.144422 -0.844003 0.735782
8 3 12.3143 32.5431 24.5352 -2.33476 1.41264 1.56474
7 3 12.9323 32.5626 23.8673 0.882261 0.301662 1.36559
9 2 12.5105 32.8007 25.4411 0.815263 0.298965 1.55331
ITEM: TIMESTEP
7000
ITEM: NUMBER OF ATOMS
20
ITEM: BOX BOUNDS pp pp pp
0.0000000000000000e+00 3.5000000000000000e+01
0.0000000000000000e+00 3.5000000000000000e+01
0.0000000000000000e+00 3.5000000000000000e+01
ITEM: ATOMS id type xu yu zu vx vy vz
11 1 12.3073 32.6269 27.1411 0.835359 0.561308 -0.003359
14 1 11.3979 32.0342 27.1501 -0.278651 -1.25741 0.475781
13 2 11.7165 31.2541 26.6513 -0.491995 0.0316909 -0.86325
16 2 10.6766 32.8525 27.6644 1.65819 -0.0720509 0.742229
17 3 11.5241 33.3271 27.7103 0.137328 0.774178 0.237146
15 1 10.7238 32.5627 26.7495 0.919882 -0.42385 -1.41243
12 2 12.3052 31.656 27.3215 -0.770887 0.749933 -0.811887
18 4 12.1678 33.8809 28.168 -0.226808 1.65426 0.0220777
19 1 12.8258 33.9681 27.4234 -1.00505 -1.446 0.728263
20 2 13.4565 33.8911 28.1236 0.860586 1.34665 0.246788
10 1 12.183 32.593 26.1721 1.33728 -0.521441 -0.129661
4 4 12.7992 32.6306 24.5856 0.255756 -0.953295 1.1999
6 2 12.6691 33.8961 25.2186 -1.32165 0.020694 0.410895
1 1 13.1407 32.0307 26.8422 -0.398466 -1.23261 -1.50739
3 4 12.4526 31.9421 25.1767 0.11536 -0.574413 -0.042959
2 2 13.0323 31.8759 25.9168 -0.612899 -0.345804 1.53561
5 1 12.9068 32.9312 25.4954 0.490979 -0.130133 0.144456
8 3 11.9418 33.2615 24.6273 -1.31164 0.282055 -0.183692
7 3 12.7837 33.6375 24.2802 0.652737 1.10054 0.621156
9 2 11.593 32.7394 25.3659 -0.845398 0.435694 -1.40967
ITEM: TIMESTEP
8000
ITEM: NUMBER OF ATOMS
20
ITEM: BOX BOUNDS pp pp pp
0.0000000000000000e+00 3.5000000000000000e+01
0.0000000000000000e+00 3.5000000000000000e+01
0.0000000000000000e+00 3.5000000000000000e+01
ITEM: ATOMS id type xu yu zu vx vy vz
14 1 11.5315 32.6319 28.726 0.473327 -0.306935 -0.947337
16 2 9.92503 33.0379 28.978 1.12632 1.07566 0.0573625
17 3 9.59235 32.7963 28.072 0.224499 0.074833 -0.390735
15 1 10.6684 32.4187 28.965 1.04457 -0.173564 -1.67815
9 2 12.6355 33.2702 25.6468 -0.058616 -0.0735101 0.838094
11 1 12.1447 32.4866 26.7166 0.469633 0.145156 1.26573
13 2 12.4239 32.6914 28.5692 -0.171127 0.837498 -0.0529951
12 2 12.4949 32.6363 27.6292 2.54187 0.80253 -0.506037
18 4 10.2573 33.212 27.4207 0.609368 -0.0598593 -2.62647
19 1 11.1456 33.1717 27.0988 0.142283 -0.957047 0.0224503
20 2 11.8211 33.7022 26.572 -0.276163 -0.804769 0.853049
10 1 11.8343 32.7754 25.7943 -2.93432 -0.481074 0.152567
4 4 13.0786 32.1903 24.5836 0.0426428 -1.79138 -1.49638
6 2 14.0286 32.3955 25.3879 -0.00409444 -1.3024 1.9096
1 1 13.8931 33.6775 24.0541 -0.251197 1.63212 0.576961
3 4 13.3719 32.2152 23.6812 -1.05459 1.09416 1.39189
2 2 13.8901 32.9334 23.3505 0.24451 0.375811 0.26917
5 1 13.4193 32.9951 24.9544 0.438585 -0.38326 0.618527
8 3 13.1078 32.5976 26.0472 -2.23635 -0.559111 0.593841
7 3 13.3397 31.7563 25.5367 -0.371144 0.855152 -0.85114
ITEM: TIMESTEP
9000
ITEM: NUMBER OF ATOMS
20
ITEM: BOX BOUNDS pp pp pp
0.0000000000000000e+00 3.5000000000000000e+01
0.0000000000000000e+00 3.5000000000000000e+01
0.0000000000000000e+00 3.5000000000000000e+01
ITEM: ATOMS id type xu yu zu vx vy vz
14 1 12.164 33.3376 27.8128 0.708649 -1.69997 -0.313677
16 2 11.2273 33.1143 27.2438 -0.906625 0.831277 -0.59208
17 3 10.7862 33.9901 27.3156 0.235227 1.96411 1.08816
15 1 11.9661 33.5366 26.8961 0.189894 -0.344382 -0.671875
18 4 10.6509 33.7571 26.3617 -0.278521 -1.31387 1.42337
19 1 11.2115 32.9515 25.9674 -1.30391 -0.213094 -0.541383
9 2 12.2442 30.9565 26.5615 -0.379268 -0.242975 -0.582185
11 1 13.0991 31.9772 26.4342 1.29238 -0.554945 0.0660284
13 2 12.3814 32.4484 27.6018 -2.21695 1.0231 -1.11693
12 2 13.2858 32.5956 27.1575 0.928638 1.08969 -1.00952
20 2 12.1064 33.1361 25.8103 2.07796 -0.765365 -1.99523
10 1 12.6934 31.5205 27.1746 0.0610932 -1.32886 0.449186
4 4 13.1779 33.0566 26.1746 0.78388 -0.170959 1.17876
6 2 12.1783 32.046 25.7611 -1.06721 0.0244929 -0.0653546
1 1 12.743 34.1441 25.0307 -0.723806 -0.364976 -0.302391
3 4 13.5813 33.9651 26.1456 0.527051 -0.475774 -0.410058
2 2 12.6398 34.2247 25.9892 -0.689654 1.547 1.11501
5 1 12.899 32.6039 25.3859 -0.106015 0.97573 1.11681
8 3 12.0237 30.6977 25.6462 -0.819366 1.36583 -0.024516
7 3 11.5447 31.5319 25.3133 1.68655 -1.34607 1.18787
ITEM: TIMESTEP
10000
ITEM: NUMBER OF ATOMS
20
ITEM: BOX BOUNDS pp pp pp
0.0000000000000000e+00 3.5000000000000000e+01
0.0000000000000000e+00 3.5000000000000000e+01
0.0000000000000000e+00 3.5000000000000000e+01
ITEM: ATOMS id type xu yu zu vx vy vz
16 2 11.8601 33.7327 27.4609 -0.194842 -1.07017 -0.709798
17 3 11.352 33.1141 28.024 0.560222 -0.00232229 -0.343972
18 4 11.1284 32.6703 27.2254 0.751004 -1.2842 2.2854
19 1 11.5354 33.1846 26.5651 -0.105414 0.178542 -0.231419
7 3 11.3695 31.4571 25.1102 0.559315 1.17304 -1.20088
14 1 12.4094 32.9108 28.7003 -0.0227308 0.115009 3.17379
15 1 12.5229 33.6871 28.1679 0.560987 -0.135171 1.25357
9 2 12.6534 31.3705 26.3191 0.638335 -0.356779 0.291552
11 1 12.0951 32.2147 26.6261 -0.473978 2.14366 -2.30692
13 2 13.0942 32.8006 28.0162 -0.155904 1.27721 -0.109199
12 2 12.3799 32.5356 27.4653 -1.12634 -0.182396 0.28195
20 2 12.4568 33.4419 26.5891 0.445563 0.187157 -0.768041
10 1 12.8611 32.2253 26.0369 -1.76184 1.3055 -1.51588
4 4 12.3563 32.8782 24.7844 0.0489595 0.182196 -0.698113
6 2 12.1652 31.8036 24.6723 0.679035 -0.531181 0.294456
1 1 13.2337 34.6874 25.4303 -0.21789 -1.82264 -0.082759
3 4 11.8618 33.4489 25.4303 0.263613 -0.891067 -0.0712383
2 2 12.6738 33.9559 25.1062 0.260445 0.464907 0.498372
5 1 12.7978 32.308 24.1205 -0.324011 -0.604554 -0.351679
8 3 11.7968 31.1644 25.9335 -0.384534 -0.146749 0.310814
ITEM: TIMESTEP
11000
ITEM: NUMBER OF ATOMS
20
ITEM: BOX BOUNDS pp pp pp
0.0000000000000000e+00 3.5000000000000000e+01
0.0000000000000000e+00 3.5000000000000000e+01
0.0000000000000000e+00 3.5000000000000000e+01
ITEM: ATOMS id type xu yu zu vx vy vz
17 3 10.9914 34.5026 27.4268 1.23127 -2.22941 1.53397
18 4 11.9009 34.1939 27.2997 -0.878786 -0.884287 0.539704
19 1 12.8192 34.3556 27.1532 0.889381 0.532652 -0.555118
7 3 12.0137 31.6393 24.8396 -0.663872 0.515114 1.1688
16 2 10.9518 33.5511 27.2884 0.0667947 0.804968 -0.527671
14 1 11.8492 32.2406 27.1244 -0.596893 0.264637 -1.47008
15 1 11.6963 33.0511 27.5892 -0.341007 0.944839 -0.700066
9 2 12.4809 31.012 26.4903 -0.277059 -0.615716 0.0724894
11 1 13.9602 32.1438 27.056 -0.664876 1.38164 0.0586866
13 2 12.7547 32.5302 27.0403 0.776258 1.60293 -0.753486
12 2 13.4553 32.4128 26.3155 -0.812036 -0.0657091 0.896723
20 2 12.6884 35.1993 26.8162 0.342144 0.320569 -0.995074
10 1 13.1866 31.5326 26.9413 0.704667 -1.0438 -0.155789
4 4 12.7379 32.3828 25.2551 0.91038 -0.493079 -0.139075
6 2 12.4402 32.2184 24.1518 0.0237283 -0.608646 1.85608
1 1 10.7315 32.8478 26.063 0.851436 -0.0316264 -1.23399
3 4 12.2246 32.4527 26.0917 0.269446 0.348349 1.44139
2 2 11.6029 33.1643 26.2444 -1.01588 -1.14356 2.07009
5 1 12.1533 32.9157 24.8349 -0.233204 1.11464 -1.019
8 3 11.9646 31.2451 25.7624 -0.581894 -0.714502 -2.08858
ITEM: TIMESTEP
12000
ITEM: NUMBER OF ATOMS
20
ITEM: BOX BOUNDS pp pp pp
0.0000000000000000e+00 3.5000000000000000e+01
0.0000000000000000e+00 3.5000000000000000e+01
0.0000000000000000e+00 3.5000000000000000e+01
ITEM: ATOMS id type xu yu zu vx vy vz
20 2 13.377 33.1677 26.9864 -0.134899 -0.441421 0.78219
17 3 13.4753 33.3735 28.8122 0.0215642 -0.326869 -0.612786
16 2 12.7517 32.9093 29.248 0.231894 0.0466681 -0.0489249
1 1 12.1069 34.091 24.4692 -1.03525 -2.17304 -0.935284
2 2 11.5725 33.2693 24.3216 0.362094 0.36632 0.453071
18 4 13.1347 33.0084 28.03 -1.37039 0.739526 1.68844
19 1 13.5026 32.3394 27.4363 0.698456 -0.596541 0.604159
7 3 13.2358 32.4587 24.5943 1.30693 -0.200007 1.00734
14 1 11.3236 32.6086 28.4213 -0.238363 0.232597 -2.05553
15 1 12.2081 33.0601 28.4811 1.07844 -1.38277 -2.31509
9 2 12.2308 32.118 25.8097 -0.370021 -0.445589 0.889294
11 1 11.4059 32.3028 27.0471 0.25249 1.99238 -1.32688
13 2 10.5401 32.5288 27.9389 0.755046 0.281447 1.39489
12 2 10.4864 32.5661 26.9703 -0.82871 -0.213589 -0.0451868
10 1 11.3312 31.957 26.1511 -0.148687 -0.885375 1.49116
4 4 12.0372 32.3567 24.2885 -0.85052 0.715569 -0.623976
6 2 12.8752 33.3737 24.5076 1.30025 0.607473 -0.781053
3 4 11.5792 32.6133 25.1057 -0.23365 -0.553533 0.820429
5 1 12.7543 32.6966 23.7697 -0.708629 1.84069 0.877836
8 3 12.6752 32.7924 25.3951 -0.0880503 0.396064 -1.2641
ITEM: TIMESTEP
13000
ITEM: NUMBER OF ATOMS
20
ITEM: BOX BOUNDS pp pp pp
0.0000000000000000e+00 3.5000000000000000e+01
0.0000000000000000e+00 3.5000000000000000e+01
0.0000000000000000e+00 3.5000000000000000e+01
ITEM: ATOMS id type xu yu zu vx vy vz
2 2 10.8204 32.5931 25.4946 -1.41842 0.848771 0.0860664
14 1 11.6463 32.3823 27.3677 1.00161 -0.482746 0.356518
11 1 12.1111 34.0479 26.2793 -1.25707 0.453262 0.547761
13 2 12.0692 32.7183 26.5385 -1.10268 0.7811 -1.93515
12 2 11.4164 33.4053 26.3383 1.47232 1.37204 0.364913
10 1 12.8245 33.7943 26.7831 0.544738 0.227852 -0.146007
3 4 11.1684 31.9119 24.9114 2.1312 0.306375 0.398288
20 2 12.8132 33.4383 27.7803 1.05729 1.3371 0.0566857
17 3 13.5084 31.6266 27.7922 -0.85804 1.42937 -2.34951
1 1 10.4267 32.5967 26.3405 -1.20085 -0.00960858 0.697299
18 4 12.9032 32.3216 28.1825 -0.841113 -0.0970561 -0.709305
19 1 13.355 32.7432 27.4506 1.41411 -1.67295 2.69661
7 3 12.8046 33.3827 25.0567 -0.105672 1.0092 -0.634993
15 1 11.5424 31.469 27.2159 -0.979625 -0.577968 0.638847
9 2 13.2454 33.9077 25.9581 -0.496217 -0.623753 0.852658
4 4 11.5573 32.7346 24.5585 -1.10962 -2.19012 -1.30008
6 2 12.0041 33.2651 25.5504 -0.39014 -0.841566 -0.29755
5 1 12.1392 32.3545 25.3144 1.44126 -0.299431 0.672508
8 3 13.7446 33.3462 25.3022 0.316461 -0.25841 0.632979
16 2 12.5032 31.5521 27.5689 0.380466 -0.711465 -0.628536
ITEM: TIMESTEP
14000
ITEM: NUMBER OF ATOMS
20
ITEM: BOX BOUNDS pp pp pp
0.0000000000000000e+00 3.5000000000000000e+01
0.0000000000000000e+00 3.5000000000000000e+01
0.0000000000000000e+00 3.5000000000000000e+01
ITEM: ATOMS id type xu yu zu vx vy vz
2 2 11.7493 32.0626 26.312 -0.102777 -0.0313431 0.902385
12 2 11.2557 33.5412 27.1575 -0.687328 -1.4623 1.28037
3 4 12.3306 32.1567 25.5197 0.432415 1.45091 -1.4149
1 1 11.5818 33.0194 26.2889 1.26756 -0.136971 0.446408
15 1 10.6073 32.0503 27.6213 0.456638 -0.543687 -2.01517
4 4 12.0879 32.7139 24.7238 -1.13431 -0.126732 0.370175
14 1 10.4821 32.6094 26.8125 1.20908 0.626244 1.15086
11 1 12.212 33.502 27.262 0.525756 -0.417429 -1.78879
13 2 10.3657 33.3311 27.4356 0.825483 -0.799235 0.16003
10 1 12.747 33.6013 26.5035 -0.360647 0.803531 -0.409332
20 2 13.5804 33.0571 27.2025 -0.439553 1.46383 -0.317484
17 3 12.3164 32.3167 27.1852 -0.948737 0.976018 1.50849
18 4 13.1464 31.8546 27.0077 -0.766516 -1.68366 -1.06669
19 1 13.9574 32.2292 27.3721 0.533904 0.458441 0.0654401
7 3 13.2377 32.8205 25.0848 0.206174 -0.104901 0.909088
9 2 12.6601 32.6937 26.2647 -1.02238 0.178675 -0.0748359
6 2 12.9765 32.9979 24.1777 -1.00507 -0.375999 0.130654
5 1 12.3293 33.6045 24.427 0.716844 0.457069 -1.91837
8 3 13.5415 32.9119 26.021 1.86599 -1.70139 1.57177
16 2 11.4386 32.5174 27.4046 -1.57253 0.968924 0.509908
ITEM: TIMESTEP
15000
ITEM: NUMBER OF ATOMS
20
ITEM: BOX BOUNDS pp pp pp
0.0000000000000000e+00 3.5000000000000000e+01
0.0000000000000000e+00 3.5000000000000000e+01
0.0000000000000000e+00 3.5000000000000000e+01
ITEM: ATOMS id type xu yu zu vx vy vz
12 2 12.6327 33.2152 27.116 -0.243878 -2.02806 0.815643
1 1 12.1851 34.2344 26.4283 0.259616 0.0468635 1.3182
15 1 12.7403 31.6453 26.9158 -2.43975 -0.183616 -0.247187
14 1 12.4479 31.7519 26.005 0.517939 0.729303 -0.00201234
13 2 12.2873 32.524 26.5811 0.210502 1.81489 0.765749
16 2 12.4445 31.5329 27.8261 0.597912 -0.228109 0.328664
2 2 12.5974 33.9406 25.6658 0.987931 0.927757 -0.494897
3 4 12.1288 33.9322 24.8499 -0.768517 0.457298 -0.189886
4 4 11.4174 33.4279 25.1908 0.0566585 -0.883655 -0.0206377
11 1 13.3073 32.5563 26.9373 1.32592 0.973296 -0.299824
10 1 13.106 32.8841 26.0525 1.48653 -0.111402 -1.73711
20 2 11.2165 32.8443 27.2731 -0.568562 -0.225733 -1.28445
17 3 12.5469 31.9895 28.6849 0.718417 -1.06204 0.154898
18 4 12.4256 32.6033 27.9347 -0.243713 -0.323109 -1.73325
19 1 11.7236 33.2358 27.9345 -1.02374 1.41574 0.123985
7 3 11.9469 32.0401 24.8305 -0.129202 -2.06547 -0.699471
9 2 12.3719 32.7144 25.4184 -1.13173 1.06671 0.179295
6 2 11.4158 32.4825 25.4446 -0.735001 -0.646167 2.30146
5 1 11.504 33.1225 26.1189 -0.745015 0.727713 0.465343
8 3 12.1578 32.9142 24.5756 1.86768 -0.402211 0.255488
ITEM: TIMESTEP
16000
ITEM: NUMBER OF ATOMS
20
ITEM: BOX BOUNDS pp pp pp
0.0000000000000000e+00 3.5000000000000000e+01
0.0000000000000000e+00 3.5000000000000000e+01
0.0000000000000000e+00 3.5000000000000000e+01
ITEM: ATOMS id type xu yu zu vx vy vz
4 4 11.96 33.181 26.2529 -0.130359 0.481615 -1.77999
20 2 10.6372 33.1515 26.7054 0.167109 0.39886 -0.0306722
6 2 11.089 32.6983 25.8704 -0.997221 0.900435 -0.076105
5 1 11.9083 32.207 26.1904 -0.575025 -0.080233 2.32584
12 2 13.0227 31.9233 25.8539 0.106318 -0.0717789 -0.225944
1 1 12.745 35.0698 26.6987 -0.780989 -0.442463 -0.199607
15 1 13.0442 31.5682 27.9296 1.96485 -0.308257 -2.32537
14 1 13.5195 32.2866 27.5068 0.825126 1.57247 0.0935051
13 2 13.2362 32.4167 26.6374 0.369045 -1.63438 -0.093675
16 2 12.3777 32.2301 27.991 0.377509 -0.795818 0.750165
2 2 12.4064 34.1677 27.0031 -0.205098 -0.677514 -0.963076
3 4 12.2403 34.0988 26.0228 -0.00131433 0.0536334 2.51776
11 1 13.5708 32.0391 25.1262 -0.318583 0.129956 -0.37907
10 1 13.2711 32.7946 24.6468 0.85745 0.267707 -0.618347
17 3 12.2002 32.6898 27.1721 -0.688758 0.694173 2.27401
18 4 11.455 32.1568 27.525 -0.390312 0.251825 -0.951383
19 1 10.5688 32.3979 27.3327 -1.084 0.79685 -1.03379
7 3 11.3015 33.4152 25.372 1.00805 -0.4013 -1.0924
9 2 12.505 32.539 25.0807 -1.20218 -1.18002 1.90132
8 3 11.5449 32.5602 24.866 0.698376 0.0442342 -0.093179
ITEM: TIMESTEP
17000
ITEM: NUMBER OF ATOMS
20
ITEM: BOX BOUNDS pp pp pp
0.0000000000000000e+00 3.5000000000000000e+01
0.0000000000000000e+00 3.5000000000000000e+01
0.0000000000000000e+00 3.5000000000000000e+01
ITEM: ATOMS id type xu yu zu vx vy vz
1 1 11.0724 35.2136 26.6234 0.471169 1.60609 -0.0119788
20 2 10.8977 31.337 28.0182 -0.590107 -0.614406 0.353156
6 2 12.1661 32.8294 25.991 1.48737 1.30037 -0.83506
18 4 11.5611 32.6756 27.4466 -0.281648 0.665385 1.44583
19 1 11.27 31.8079 27.2934 0.937235 0.772071 -0.29628
7 3 11.4346 32.9421 25.4221 -0.642018 -0.854664 -0.578814
8 3 11.6076 32.0767 25.091 -0.637779 0.286418 0.518486
4 4 12.5653 33.9283 26.4105 0.597866 -1.46371 1.5613
5 1 12.5691 33.4373 25.4533 -0.338733 -0.73032 -1.01628
12 2 13.0851 32.2268 26.1612 -0.686785 -0.502386 -2.36963
15 1 13.5588 31.6174 27.2909 0.364834 0.452449 0.0306335
14 1 12.8052 31.243 26.746 -0.0773318 -0.475436 0.913217
13 2 12.3666 32.1085 26.7614 0.862637 0.103508 0.504244
16 2 13.2306 32.4747 27.2172 -1.60544 0.167693 0.831109
2 2 11.3781 34.3881 26.4485 -0.304728 -2.2236 0.234971
3 4 12.1396 34.4047 27.1204 -0.67089 0.339495 1.05475
11 1 12.974 32.2365 25.1448 0.95459 -1.20727 -0.543007
10 1 13.2166 33.0312 24.677 -1.24939 0.820249 0.18971
17 3 12.4993 32.8533 27.7594 0.025087 0.594124 -1.88131
9 2 12.2061 32.7596 24.7077 1.38406 0.963956 -0.105044
ITEM: TIMESTEP
18000
ITEM: NUMBER OF ATOMS
20
ITEM: BOX BOUNDS pp pp pp
0.0000000000000000e+00 3.5000000000000000e+01
0.0000000000000000e+00 3.5000000000000000e+01
0.0000000000000000e+00 3.5000000000000000e+01
ITEM: ATOMS id type xu yu zu vx vy vz
1 1 10.278 34.4516 26.8764 -0.770441 -0.212431 0.198949
20 2 11.8453 32.6487 27.0903 -0.863645 0.373296 0.56745
18 4 13.0675 33.0079 27.9881 -0.137877 -0.767069 1.26632
19 1 12.6858 33.1389 27.0858 -1.05866 0.339118 -2.40201
7 3 11.9675 34.2446 26.0909 0.216128 1.09812 1.26949
8 3 12.7511 33.8313 25.7641 -1.3865 -0.358148 -2.04093
2 2 10.9562 33.8123 26.696 0.122833 1.443 0.520506
6 2 11.5718 33.5541 25.4645 -1.39592 -0.402888 1.25187
4 4 11.0403 32.7918 26.3812 0.178089 -2.71152 -0.168504
5 1 10.9201 32.8791 25.402 0.529979 2.40488 0.837425
12 2 13.4993 31.1161 25.2377 -0.0298476 0.809671 0.955525
15 1 13.0417 32.1552 26.6954 -0.108031 -0.677565 -1.54792
14 1 12.2952 31.6356 26.4968 -0.338368 -0.611085 0.606932
13 2 13.0562 31.1254 26.1414 0.764055 0.2386 0.460867
16 2 13.7994 32.0951 27.2542 1.51156 -0.179273 -0.602617
3 4 10.3574 33.1138 26.8874 1.00874 0.91567 -0.805371
11 1 12.7136 31.6769 25.0038 -0.43737 -1.30779 0.4054
10 1 12.4686 32.5682 25.1813 3.11622 -0.944923 -0.622462
17 3 13.989 32.7212 27.9418 -0.263935 -0.670641 0.309378
9 2 12.2996 33.0237 26.1049 -0.657008 1.22099 -0.460286
ITEM: TIMESTEP
19000
ITEM: NUMBER OF ATOMS
20
ITEM: BOX BOUNDS pp pp pp
0.0000000000000000e+00 3.5000000000000000e+01
0.0000000000000000e+00 3.5000000000000000e+01
0.0000000000000000e+00 3.5000000000000000e+01
ITEM: ATOMS id type xu yu zu vx vy vz
1 1 9.59619 34.6888 27.167 0.899009 -0.125618 -2.69716
2 2 10.4162 34.2692 27.4697 -0.18637 -1.27474 0.358536
6 2 12.2095 33.2494 26.0856 0.0253694 0.704312 0.739346
4 4 10.78 33.2832 27.0895 -0.806992 -1.15324 -1.01946
5 1 11.5754 33.5798 26.6875 -0.193399 -0.383421 0.815115
3 4 9.92355 33.592 26.9602 1.43287 1.07786 0.845027
20 2 12.22 32.8992 27.3816 0.884046 0.736654 0.393096
18 4 13.2054 33.0941 27.7607 0.918522 0.061892 2.60899
19 1 12.7289 33.6561 27.0961 0.07307 -0.94296 -0.861572
7 3 11.5587 33.7836 25.5258 -1.95273 0.258839 -0.440944
8 3 11.4489 32.912 25.2281 0.171705 1.01068 -0.534546
12 2 13.038 31.9274 25.4871 -0.391768 -0.668146 1.29063
15 1 13.7847 31.5005 26.6237 2.35189 0.400373 -1.08416
14 1 13.1489 31.1074 25.9992 -0.415624 -0.0289482 -0.973366
13 2 13.8706 31.6501 25.644 0.230123 0.536619 0.897618
16 2 14.4571 32.0188 27.0524 0.829418 -1.24573 0.248277
11 1 12.1644 31.6764 25.7813 -1.32946 -0.394602 1.32866
10 1 12.3501 31.4862 24.7833 -0.561476 -0.157374 -0.720766
17 3 13.8946 32.7536 27.0952 -0.625899 0.831545 -0.160654
9 2 12.2327 32.4638 24.866 -1.3523 0.756006 -1.03267
ITEM: TIMESTEP
20000
ITEM: NUMBER OF ATOMS
20
ITEM: BOX BOUNDS pp pp pp
0.0000000000000000e+00 3.5000000000000000e+01
0.0000000000000000e+00 3.5000000000000000e+01
0.0000000000000000e+00 3.5000000000000000e+01
ITEM: ATOMS id type xu yu zu vx vy vz
1 1 10.7377 32.876 27.6626 -0.588787 1.39966 1.25399
2 2 11.0082 33.6723 27.1517 -0.598431 -0.385916 -0.179464
4 4 11.882 33.707 26.2524 -1.37448 -2.19862 -0.353183
5 1 11.7737 32.8539 25.9049 -0.717189 1.4719 -1.30453
3 4 10.9405 33.8834 26.2254 -0.607082 -0.961013 -0.258012
7 3 12.4177 32.5322 25.0865 1.74016 -1.3965 0.434981
8 3 11.49 32.3354 25.0461 0.605966 -0.375985 2.62587
6 2 12.7339 33.0549 25.7907 1.06801 1.0978 -0.64772
20 2 12.4318 33.2179 27.0853 -1.1839 0.858927 -0.765184
18 4 13.5342 33.6142 27.3079 1.05881 -0.846811 1.47257
19 1 13.086 32.9581 27.8426 0.813908 0.926995 -0.124301
12 2 12.3889 32.0456 26.1605 -2.06259 0.540444 -0.646322
15 1 13.7152 32.1243 25.9064 -0.124108 -0.506053 1.67205
14 1 13.729 31.3111 26.3858 0.0699939 0.388183 -2.45414
13 2 13.0686 31.7627 26.8561 0.258584 0.331275 -0.119189
16 2 13.5254 32.929 26.4236 -0.435178 -0.283226 -0.760753
11 1 11.4681 31.8123 26.3024 0.148286 -0.526455 -1.61048
10 1 10.7077 32.3533 26.4392 0.68538 -0.385162 -0.11618
17 3 13.2232 33.8924 26.406 0.649231 -0.356863 0.576407
9 2 10.742 32.6558 25.5479 0.593424 1.20743 1.30358
ITEM: TIMESTEP
21000
ITEM: NUMBER OF ATOMS
20
ITEM: BOX BOUNDS pp pp pp
0.0000000000000000e+00 3.5000000000000000e+01
0.0000000000000000e+00 3.5000000000000000e+01
0.0000000000000000e+00 3.5000000000000000e+01
ITEM: ATOMS id type xu yu zu vx vy vz
1 1 11.4913 33.9946 27.0698 0.74505 -0.22025 -1.34368
2 2 11.3582 33.8678 26.1091 1.14995 -1.20062 0.587176
3 4 11.1205 33.1357 25.4843 0.16667 -0.487187 0.247466
8 3 11.2517 32.0405 25.4791 -0.604691 -1.04972 0.242709
11 1 12.9898 32.432 26.0828 0.0866054 -0.462448 0.812778
10 1 12.0943 32.1213 26.3095 0.613099 0.275433 -0.197496
9 2 11.9957 31.4701 25.6127 0.273268 -0.301529 -2.00408
4 4 11.0221 33.6939 24.7066 -0.638206 -0.488542 0.65533
5 1 10.9643 33.944 23.8289 0.283761 2.1283 0.145732
7 3 11.6198 32.5593 24.6615 -1.61979 -1.07783 -1.24135
6 2 11.5701 33.1946 23.9812 -0.190808 -0.55444 -0.395371
20 2 14.7664 32.6921 26.6863 1.26705 0.146928 1.41986
18 4 13.3661 32.0989 27.8308 0.795698 0.220045 -0.260088
19 1 14.0944 32.617 27.3387 2.35341 -0.881683 -0.383983
12 2 13.1281 32.7394 27.0182 -0.111917 0.544512 0.963287
15 1 11.8712 32.6222 28.0226 -0.153109 0.592122 1.92932
14 1 11.5334 32.6025 27.1213 -0.771369 0.778885 -0.10772
13 2 12.3212 33.1921 26.921 -2.07568 1.4341 1.93489
16 2 12.5773 32.4704 28.7059 -1.45677 0.403693 -1.00221
17 3 13.4681 32.103 28.8137 -0.112208 0.200228 -2.00257
ITEM: TIMESTEP
22000
ITEM: NUMBER OF ATOMS