LAMMPS (23 Jun 2022 - Update 1)
OMP_NUM_THREADS environment is not set. Defaulting to 1 thread. (src/comm.cpp:98)
  using 1 OpenMP thread(s) per MPI task


variable        runtime equal 1000000
variable		subsample_rate equal 1000

variable		outputfile_created string '3_created.data'
variable		outputfile_relaxed string '5_relaxed.data'
variable		outputfile_selfasb string '6_a_self_assemble.lammpstrj'
variable		outputfile_trajlin string '6_b_trajlin.data'
variable		outputfile_assembled string '7_assembled.data'

units           lj
atom_style      full
dimension       3
boundary        p p p
timestep        0.005

read_data       ${outputfile_created}
read_data       3_created.data
Reading data file ...
  orthogonal box = (0 0 0) to (35 35 35)
  1 by 1 by 1 MPI processor grid
  reading atoms ...
  100 atoms
  reading velocities ...
  100 velocities
  scanning bonds ...
  1 = max bonds/atom
  reading bonds ...
  99 bonds
Finding 1-2 1-3 1-4 neighbors ...
  special bond factors lj:    0        0        0       
  special bond factors coul:  0        0        0       
     2 = max # of 1-2 neighbors
     2 = max # of 1-3 neighbors
     4 = max # of 1-4 neighbors
     6 = max # of special neighbors
  special bonds CPU = 0.000 seconds
  read_data CPU = 0.006 seconds

bond_style      fene
bond_coeff      * 30.0 1.5 1.0 1.0
special_bonds   fene
Finding 1-2 1-3 1-4 neighbors ...
  special bond factors lj:    0        1        1       
  special bond factors coul:  0        1        1       
     2 = max # of 1-2 neighbors
     6 = max # of special neighbors
  special bonds CPU = 0.000 seconds

variable        Temp equal 1.0
variable        velSeed equal 926458

velocity        all create ${Temp} ${velSeed}
velocity        all create 1 ${velSeed}
velocity        all create 1 926458

### Output
thermo_style    custom step temp density press etotal pe ke epair spcpu
thermo          1000

###########################################################################
# Soft relaxation (to remove overlaps of particles)
######################################################################

pair_style      soft 1.0
pair_coeff      * * 0.0
variable        prefactor equal ramp(0,300)
fix             rampSoft all adapt 1 pair soft a * * v_prefactor

minimize        0.0 1.0e-8 1000 100000
WARNING: Using 'neigh_modify every 1 delay 0 check yes' setting during minimization (src/min.cpp:187)
Generated 0 of 6 mixed pair_coeff terms from geometric mixing rule
Neighbor list info ...
  update every 1 steps, delay 0 steps, check yes
  max neighbors/atom: 2000, page size: 100000
  master list distance cutoff = 1.3
  ghost atom cutoff = 1.3
  binsize = 0.65, bins = 54 54 54
  1 neighbor lists, perpetual/occasional/extra = 1 0 0
  (1) pair soft, perpetual
      attributes: half, newton on
      pair build: half/bin/newton
      stencil: half/bin/3d
      bin: standard
WARNING: Communication cutoff 1.3 is shorter than a bond length based estimate of 1.7550000000000001. This may lead to errors. (src/comm.cpp:727)
Per MPI rank memory allocation (min/avg/max) = 8.346 | 8.346 | 8.346 Mbytes
   Step          Temp         Density         Press          TotEng         PotEng         KinEng         E_pair         S/CPU     
         0   1              0.0023323615  -0.0039617958   21.524174      20.039174      1.485          0              0            
       362   1              0.0023323615   0.0023090379   21.485548      20.000548      1.485          0              69089.362    
Loop time of 0.00525191 on 1 procs for 362 steps with 100 atoms

99.3% CPU use with 1 MPI tasks x 1 OpenMP threads

Minimization stats:
  Stopping criterion = force tolerance
  Energy initial, next-to-last, final = 
      20.0391741078675   20.0005480767337   20.0005480767337
  Force two-norm initial, final = 11.878422 7.9509778e-09
  Force max component initial, final = 6.6117807 1.3572772e-09
  Final line search alpha, max atom move = 1 1.3572772e-09
  Iterations, force evaluations = 362 738

MPI task timing breakdown:
Section |  min time  |  avg time  |  max time  |%varavg| %total
---------------------------------------------------------------
Pair    | 0.00022158 | 0.00022158 | 0.00022158 |   0.0 |  4.22
Bond    | 0.0023219  | 0.0023219  | 0.0023219  |   0.0 | 44.21
Neigh   | 0.0015238  | 0.0015238  | 0.0015238  |   0.0 | 29.01
Comm    | 0.0001852  | 0.0001852  | 0.0001852  |   0.0 |  3.53
Output  | 0          | 0          | 0          |   0.0 |  0.00
Modify  | 0          | 0          | 0          |   0.0 |  0.00
Other   |            | 0.0009994  |            |       | 19.03

Nlocal:            100 ave         100 max         100 min
Histogram: 1 0 0 0 0 0 0 0 0 0
Nghost:             20 ave          20 max          20 min
Histogram: 1 0 0 0 0 0 0 0 0 0
Neighs:              0 ave           0 max           0 min
Histogram: 1 0 0 0 0 0 0 0 0 0

Total # of neighbors = 0
Ave neighs/atom = 0
Ave special neighs/atom = 1.98
Neighbor list builds = 17
Dangerous builds = 0

fix             nvtSoft all nvt temp ${Temp} ${Temp} 0.5
fix             nvtSoft all nvt temp 1 ${Temp} 0.5
fix             nvtSoft all nvt temp 1 1 0.5
run             100000
Generated 0 of 6 mixed pair_coeff terms from geometric mixing rule
WARNING: Communication cutoff 1.3 is shorter than a bond length based estimate of 1.7550000000000001. This may lead to errors. (src/comm.cpp:727)
Per MPI rank memory allocation (min/avg/max) = 7.221 | 7.221 | 7.221 Mbytes
   Step          Temp         Density         Press          TotEng         PotEng         KinEng         E_pair         S/CPU     
       362   1              0.0023323615   0.0023090379   21.485548      20.000548      1.485          0              0            
      1000   0.90989032     0.0023323615  -0.0021940042   21.776974      20.425787      1.3511871      0.00036425437  78143.344    
      2000   0.86546688     0.0023323615   0.0034714157   21.677128      20.39191       1.2852183      0.0025814786   77344.509    
      3000   0.98199538     0.0023323615   0.0028144228   21.866132      20.407869      1.4582631      0.0011756043   74095.276    
      4000   1.004495       0.0023323615  -0.0014058211   21.945624      20.453949      1.4916751      0.011986179    74254.193    
      5000   1.1222705      0.0023323615   0.0044495116   21.986385      20.319813      1.6665718      0.0050317639   74458.318    
      6000   1.0538243      0.0023323615   0.0023957538   21.985713      20.420784      1.564929       0.012100514    74772.398    
      7000   1.0210598      0.0023323615  -0.00038820026  21.904665      20.388391      1.5162738      0              76543.134    
      8000   0.94819751     0.0023323615   0.0024943091   21.747889      20.339816      1.4080733      0              76404.56     
      9000   0.92364502     0.0023323615   0.0020053029   21.724166      20.352554      1.3716129      1.7780894e-05  75540.831    
     10000   0.86685188     0.0023323615   0.00078277366  21.644879      20.357604      1.287275       0.0098636418   75759.229    
     11000   1.0057103      0.0023323615   0.00010113276  21.8558        20.362321      1.4934798      0.020705341    75661.085    
     12000   0.97901664     0.0023323615  -0.0026996968   21.871206      20.417366      1.4538397      0.0052928539   75552.097    
     13000   0.97718436     0.0023323615  -6.1641422e-06  21.963706      20.512587      1.4511188      0.025022446    75282.05     
     14000   1.0530014      0.0023323615  -0.0009993112   21.947994      20.384287      1.5637071      0.0020860456   74893.307    
     15000   0.99094527     0.0023323615   0.0011068478   21.895146      20.423592      1.4715537      0.0015091113   75621.531    
     16000   0.91285091     0.0023323615  -0.00025424173  21.87524       20.519657      1.3555836      0.0047853639   74924.169    
     17000   0.82806978     0.0023323615  -0.00054698156  21.701984      20.472301      1.2296836      0              75430.766    
     18000   1.043278       0.0023323615  -6.6143919e-05  22.003299      20.454031      1.5492679      0.0034319132   76164.421    
     19000   1.0879249      0.0023323615  -0.0017804642   21.998985      20.383416      1.6155685      0.015376175    74549.846    
     20000   1.1144506      0.0023323615   0.0025198298   22.190904      20.535944      1.6549592      0              75791.849    
     21000   1.0427751      0.0023323615   0.0011345349   22.099492      20.550971      1.548521       0.00040047813  76063.998    
     22000   1.0586695      0.0023323615   0.0017882747   22.05673       20.484606      1.5721242      0              75972.468    
     23000   1.0058426      0.0023323615  -0.0055245362   21.954628      20.460951      1.4936763      0.0027619031   75104.299    
     24000   0.98273442     0.0023323615   0.0015147357   21.862067      20.402707      1.4593606      0              75530.081    
     25000   0.95835343     0.0023323615   0.0017808774   21.937761      20.514606      1.4231548      0.00020839942  75170.986    
     26000   0.93993778     0.0023323615  -0.0021777292   21.884849      20.489042      1.3958076      0.0088889834   75925.14     
     27000   0.9308188      0.0023323615  -0.00011239942  21.842252      20.459986      1.3822659      0.021612409    75024.867    
     28000   1.0149581      0.0023323615   0.0041996387   21.906846      20.399633      1.5072129      0.0064059022   75434.584    
     29000   0.92841138     0.0023323615  -2.5398808e-05  21.987185      20.608494      1.3786909      0.0046112484   75281.993    
     30000   1.021043       0.0023323615   0.001589158    22.097958      20.581709      1.5162489      0.016799508    73282.853    
     31000   1.0465985      0.0023323615  -0.0021744286   22.037917      20.483718      1.5541987      0.0057879149   75718.713    
     32000   0.98907108     0.0023323615  -0.0015558606   22.044089      20.575318      1.4687705      0.009448173    75493.406    
     33000   1.0918536      0.0023323615  -0.0025643847   22.039275      20.417873      1.6214025      0              74563.831    
     34000   0.99801543     0.0023323615   0.0016279766   21.932339      20.450286      1.4820529      0.017384617    77082.353    
     35000   1.0352271      0.0023323615  -0.0052971711   22.076004      20.538692      1.5373122      0.00010473809  75601.882    
     36000   1.1141579      0.0023323615  -0.00093279925  22.222491      20.567966      1.6545245      0.00033678641  76591.413    
     37000   1.0369415      0.0023323615   0.00013065175  22.217841      20.677983      1.5398581      0.013788831    75680.989    
     38000   1.0515596      0.0023323615   0.0021717558   22.070766      20.5092        1.561566       0.0067894678   76123.986    
     39000   1.0238495      0.0023323615   0.00026414509  22.040141      20.519725      1.5204165      0.00044464649  75325.232    
     40000   1.0749111      0.0023323615  -0.0026849368   22.039327      20.443084      1.596243       0.012651334    73819.855    
     41000   0.99070886     0.0023323615  -0.0030385564   22.03241       20.561207      1.4712027      0.00092855646  76628.217    
     42000   0.95315224     0.0023323615   0.0019788197   21.965263      20.549832      1.4154311      0.020233689    75380.184    
     43000   1.0644183      0.0023323615  -0.0011168725   22.287172      20.706511      1.5806611      0.039694129    75335.69     
     44000   1.0253747      0.0023323615  -0.006676522    22.066233      20.543552      1.5226814      0              74501.553    
     45000   0.94179556     0.0023323615  -0.0047206018   21.970644      20.572077      1.3985664      0.019869988    74907.467    
     46000   1.0083495      0.0023323615  -0.0017646918   21.972114      20.474715      1.497399       0.00026040605  74971.842    
     47000   0.98767959     0.0023323615  -0.00080218158  22.091674      20.62497       1.4667042      0.024266258    75026.105    
     48000   1.1473449      0.0023323615  -0.0025885687   22.080512      20.376705      1.7038072      0.00065962995  75200.324    
     49000   1.0679312      0.0023323615   0.0017688272   21.970482      20.384604      1.5858779      0.014142422    76264.975    
     50000   0.9581935      0.0023323615   0.0014398836   21.955202      20.532284      1.4229173      0.0055011948   69273.406    
     51000   1.0215759      0.0023323615  -0.00093292688  21.934681      20.41764       1.5170402      0              75019.002    
     52000   0.98079591     0.0023323615   0.0040701936   21.977374      20.520892      1.4564819      0.0020862422   76422.229    
     53000   1.0090927      0.0023323615   0.0013324753   22.095438      20.596935      1.4985027      0              75479.252    
     54000   0.97519627     0.0023323615   0.0013260734   22.070151      20.621984      1.4481665      0.026885444    76262.701    
     55000   1.1805087      0.0023323615  -0.001586238    22.424088      20.671033      1.7530554      0.024690954    76233.527    
     56000   0.98387121     0.0023323615   0.0037155145   22.104425      20.643376      1.4610487      0.01435493     75906.024    
     57000   1.0723812      0.0023323615  -0.0037916262   22.122726      20.53024       1.592486       0.013635549    76233.986    
     58000   1.0152349      0.0023323615   0.00021908047  22.082827      20.575203      1.5076238      0.00077375639  75946.343    
     59000   1.1424502      0.0023323615  -0.0052108657   22.30072       20.604182      1.6965385      0.013308184    77047.307    
     60000   1.0359703      0.0023323615  -0.00097887545  22.188218      20.649802      1.538416       0.00011346294  75203.378    
     61000   1.1646839      0.0023323615  -0.002085017    22.239945      20.51039       1.7295556      0.012918477    77496.317    
     62000   1.101836       0.0023323615   0.0010338878   22.171386      20.53516       1.6362265      0.001396566    75989.649    
     63000   0.96616435     0.0023323615   0.00097550571  21.903821      20.469067      1.4347541      0.013027663    77334.197    
     64000   1.0068907      0.0023323615  -0.0020278726   22.061652      20.566419      1.4952327      0.013750276    75968.076    
     65000   0.98723233     0.0023323615   0.0022441476   22.031073      20.565033      1.46604        0.0066686189   76519.068    
     66000   1.0273881      0.0023323615  -0.0003515278   22.183579      20.657908      1.5256713      0              74608.703    
     67000   0.96528212     0.0023323615  -0.00014822656  21.9396        20.506156      1.4334439      0.010365557    76645.279    
     68000   1.069702       0.0023323615   9.4754668e-05  22.081119      20.492611      1.5885075      0.00049153926  73842.248    
     69000   1.1229502      0.0023323615   0.0011504079   22.200329      20.532748      1.6675811      0.0068454249   76551.232    
     70000   1.0062775      0.0023323615  -0.00085311964  22.094021      20.599699      1.4943221      0.013222355    74752.355    
     71000   1.0906935      0.0023323615   0.00015260357  22.145362      20.525682      1.6196798      0.018338513    75665.905    
     72000   1.010401       0.0023323615  -6.0487182e-06  22.154105      20.653659      1.5004455      0.0013793953   74621.692    
     73000   1.1177599      0.0023323615  -0.0034084797   22.254435      20.594562      1.6598735      0.00011231735  77210.907    
     74000   0.9768019      0.0023323615   0.00016143893  22.07312       20.622569      1.4505508      0.0084515956   75503.005    
     75000   1.1360996      0.0023323615   0.002159116    22.161595      20.474487      1.6871079      0.0089909162   76249.942    
     76000   0.97379329     0.0023323615  -0.00068458621  21.988928      20.542845      1.446083       0              75261.959    
     77000   0.94876793     0.0023323615  -0.0016073976   21.923496      20.514575      1.4089204      0.017745108    75552.782    
     78000   0.83947996     0.0023323615  -0.00062768559  21.726727      20.480099      1.2466277      0.0054510099   76147.329    
     79000   1.0090614      0.0023323615  -0.00080262643  22.068192      20.569736      1.4984562      0.00023011166  77013.36     
     80000   1.1217643      0.0023323615  -0.0038177864   22.367902      20.702082      1.66582        0.032902439    76097.987    
     81000   1.0240158      0.0023323615   0.00023547123  22.031597      20.510933      1.5206635      0.0068767308   75655.235    
     82000   1.003236       0.0023323615  -0.0022802982   21.894199      20.404393      1.4898055      0.019136282    74793.583    
     83000   1.0554159      0.0023323615   0.004011718    22.104562      20.537269      1.5672927      0.0080869707   74564.387    
     84000   0.83527346     0.0023323615  -0.0034122221   21.874648      20.634267      1.2403811      0.0030083664   75678.749    
     85000   1.036002       0.0023323615   0.0013573923   21.962923      20.42446       1.5384629      0.015709144    76345.535    
     86000   0.9432002      0.0023323615  -0.0032183248   21.913588      20.512936      1.4006523      0.013730309    76293.835    
     87000   0.95566008     0.0023323615  -0.00049614223  21.91653       20.497375      1.4191552      0.0035862035   75459.966    
     88000   0.93373351     0.0023323615  -0.00097093893  21.870485      20.483891      1.3865943      0.0018212145   75009.245    
     89000   0.9684944      0.0023323615  -0.00047342045  21.973429      20.535215      1.4382142      0.00087524744  75399.599    
     90000   0.98293324     0.0023323615  -0.0032204602   22.050919      20.591263      1.4596559      0.015353933    76687.805    
     91000   1.0832827      0.0023323615   0.0048517083   22.11977       20.511095      1.6086749      0.0052867789   77464.8      
     92000   0.85899662     0.0023323615  -0.0013049519   21.765697      20.490087      1.27561        0.0024124001   76377.203    
     93000   0.96176266     0.0023323615  -4.4223672e-05  21.874222      20.446004      1.4282176      0.0045653365   77189.172    
     94000   0.96019503     0.0023323615   0.00024459347  21.944954      20.519064      1.4258896      3.8053462e-05  76611.874    
     95000   0.94702149     0.0023323615  -0.0033658915   21.86315       20.456823      1.4063269      0              77211.98     
     96000   0.91119348     0.0023323615  -0.0013197298   21.825018      20.471896      1.3531223      0.00043282989  75935.939    
     97000   1.0016687      0.0023323615  -0.0019514304   22.013024      20.525546      1.487478       0.0048369955   75315.395    
     98000   1.02143        0.0023323615  -0.0057874974   22.177965      20.661142      1.5168235      0              74232.822    
     99000   1.032786       0.0023323615   0.0018228259   21.975336      20.441649      1.5336871      7.1595851e-05  77235.882    
    100000   1.0594928      0.0023323615   0.0036169719   22.011024      20.437677      1.5733468      0.00032948157  75616.088    
    100362   1.1904942      0.0023323615  -0.00089755607  22.316856      20.548972      1.7678839      0.00063845255  74828.484    
Loop time of 1.32232 on 1 procs for 100000 steps with 100 atoms

Performance: 32669788.724 tau/day, 75624.511 timesteps/s
99.0% CPU use with 1 MPI tasks x 1 OpenMP threads

MPI task timing breakdown:
Section |  min time  |  avg time  |  max time  |%varavg| %total
---------------------------------------------------------------
Pair    | 0.049826   | 0.049826   | 0.049826   |   0.0 |  3.77
Bond    | 0.12766    | 0.12766    | 0.12766    |   0.0 |  9.65
Neigh   | 0.80615    | 0.80615    | 0.80615    |   0.0 | 60.96
Comm    | 0.05613    | 0.05613    | 0.05613    |   0.0 |  4.24
Output  | 0.0011255  | 0.0011255  | 0.0011255  |   0.0 |  0.09
Modify  | 0.24708    | 0.24708    | 0.24708    |   0.0 | 18.69
Other   |            | 0.03435    |            |       |  2.60

Nlocal:            100 ave         100 max         100 min
Histogram: 1 0 0 0 0 0 0 0 0 0
Nghost:             60 ave          60 max          60 min
Histogram: 1 0 0 0 0 0 0 0 0 0
Neighs:             36 ave          36 max          36 min
Histogram: 1 0 0 0 0 0 0 0 0 0

Total # of neighbors = 36
Ave neighs/atom = 0.36
Ave special neighs/atom = 1.98
Neighbor list builds = 9821
Dangerous builds = 8265
unfix           nvtSoft
unfix           rampSoft
reset_timestep  0

write_data      ${outputfile_relaxed}
write_data      5_relaxed.data
System init for write_data ...
Generated 0 of 6 mixed pair_coeff terms from geometric mixing rule
WARNING: Communication cutoff 1.3 is shorter than a bond length based estimate of 1.7550000000000001. This may lead to errors. (src/comm.cpp:727)
WARNING: Not all mixed pair coeffs generated from mixing. Use write_data with 'pair ij' option to store all pair coeffs. (src/write_data.cpp:309)

###########################################################################
# Full LJ with Coulomb
######################################################################

# Cutoffs and parameters:
# - Values: Marcel Verkade's Bachelor Thesis
# - Mapping to atom groups: Patrick Onck's paper
# - 1: aliphatic, 2: aromatic, 3: anion, 4: cation
# pair_style	lj/cut/coul/cut <lj_cut_global> <coul_cut_global>
# pair_coeff	<type_1>  <type_2>  <eps>  <sigma>  <r_cut_lj>  <r_cut_coul>

# Problem: Onck's model is much more complex, and Marcel has no sigma reported
# Using sigma=1 randomly

variable		glob_ljeps equal 1.0
variable		glob_ljsig 	equal 1.0
variable		glob_coulcut equal 10.0
variable		att_ljcut equal 2.50
variable		rep_ljcut equal 1.12

pair_style		lj/cut/coul/cut 						${att_ljcut} 	${glob_coulcut}
pair_style		lj/cut/coul/cut 						2.5 	${glob_coulcut}
pair_style		lj/cut/coul/cut 						2.5 	10
pair_coeff		1 1 	${glob_ljeps} 	${glob_ljsig}	${att_ljcut} 	${glob_coulcut}
pair_coeff		1 1 	1 	${glob_ljsig}	${att_ljcut} 	${glob_coulcut}
pair_coeff		1 1 	1 	1	${att_ljcut} 	${glob_coulcut}
pair_coeff		1 1 	1 	1	2.5 	${glob_coulcut}
pair_coeff		1 1 	1 	1	2.5 	10
pair_coeff		1 2 	${glob_ljeps} 	${glob_ljsig}	${att_ljcut} 	${glob_coulcut}
pair_coeff		1 2 	1 	${glob_ljsig}	${att_ljcut} 	${glob_coulcut}
pair_coeff		1 2 	1 	1	${att_ljcut} 	${glob_coulcut}
pair_coeff		1 2 	1 	1	2.5 	${glob_coulcut}
pair_coeff		1 2 	1 	1	2.5 	10
pair_coeff		1 3 	${glob_ljeps} 	${glob_ljsig}	${rep_ljcut} 	${glob_coulcut}
pair_coeff		1 3 	1 	${glob_ljsig}	${rep_ljcut} 	${glob_coulcut}
pair_coeff		1 3 	1 	1	${rep_ljcut} 	${glob_coulcut}
pair_coeff		1 3 	1 	1	1.12 	${glob_coulcut}
pair_coeff		1 3 	1 	1	1.12 	10
pair_coeff		1 4 	${glob_ljeps} 	${glob_ljsig}	${rep_ljcut} 	${glob_coulcut}
pair_coeff		1 4 	1 	${glob_ljsig}	${rep_ljcut} 	${glob_coulcut}
pair_coeff		1 4 	1 	1	${rep_ljcut} 	${glob_coulcut}
pair_coeff		1 4 	1 	1	1.12 	${glob_coulcut}
pair_coeff		1 4 	1 	1	1.12 	10
pair_coeff		2 2 	${glob_ljeps} 	${glob_ljsig}	${att_ljcut} 	${glob_coulcut}
pair_coeff		2 2 	1 	${glob_ljsig}	${att_ljcut} 	${glob_coulcut}
pair_coeff		2 2 	1 	1	${att_ljcut} 	${glob_coulcut}
pair_coeff		2 2 	1 	1	2.5 	${glob_coulcut}
pair_coeff		2 2 	1 	1	2.5 	10
pair_coeff		2 3 	${glob_ljeps} 	${glob_ljsig}	${rep_ljcut} 	${glob_coulcut}
pair_coeff		2 3 	1 	${glob_ljsig}	${rep_ljcut} 	${glob_coulcut}
pair_coeff		2 3 	1 	1	${rep_ljcut} 	${glob_coulcut}
pair_coeff		2 3 	1 	1	1.12 	${glob_coulcut}
pair_coeff		2 3 	1 	1	1.12 	10
pair_coeff		2 4 	${glob_ljeps} 	${glob_ljsig}	${att_ljcut} 	${glob_coulcut}
pair_coeff		2 4 	1 	${glob_ljsig}	${att_ljcut} 	${glob_coulcut}
pair_coeff		2 4 	1 	1	${att_ljcut} 	${glob_coulcut}
pair_coeff		2 4 	1 	1	2.5 	${glob_coulcut}
pair_coeff		2 4 	1 	1	2.5 	10
pair_coeff		3 3 	${glob_ljeps} 	${glob_ljsig}	${rep_ljcut} 	${glob_coulcut}
pair_coeff		3 3 	1 	${glob_ljsig}	${rep_ljcut} 	${glob_coulcut}
pair_coeff		3 3 	1 	1	${rep_ljcut} 	${glob_coulcut}
pair_coeff		3 3 	1 	1	1.12 	${glob_coulcut}
pair_coeff		3 3 	1 	1	1.12 	10
pair_coeff		3 4 	${glob_ljeps} 	${glob_ljsig}	${att_ljcut} 	${glob_coulcut}
pair_coeff		3 4 	1 	${glob_ljsig}	${att_ljcut} 	${glob_coulcut}
pair_coeff		3 4 	1 	1	${att_ljcut} 	${glob_coulcut}
pair_coeff		3 4 	1 	1	2.5 	${glob_coulcut}
pair_coeff		3 4 	1 	1	2.5 	10
pair_coeff		4 4 	${glob_ljeps} 	${glob_ljsig}	${rep_ljcut} 	${glob_coulcut}
pair_coeff		4 4 	1 	${glob_ljsig}	${rep_ljcut} 	${glob_coulcut}
pair_coeff		4 4 	1 	1	${rep_ljcut} 	${glob_coulcut}
pair_coeff		4 4 	1 	1	1.12 	${glob_coulcut}
pair_coeff		4 4 	1 	1	1.12 	10


fix             noDriftRot 	all momentum 10 linear 1 1 1 angular
fix             nvt1 		all nvt temp ${Temp} ${Temp} 0.5
fix             nvt1 		all nvt temp 1 ${Temp} 0.5
fix             nvt1 		all nvt temp 1 1 0.5

# dump          assemble 	all custom 1000 				${outputfile_selfasb} id type xu yu zu vx vy vz
dump            lindump 	all custom ${subsample_rate} 	${outputfile_trajlin} id type xu yu zu vx vy vz
dump            lindump 	all custom 1000 	${outputfile_trajlin} id type xu yu zu vx vy vz
dump            lindump 	all custom 1000 	6_b_trajlin.data id type xu yu zu vx vy vz

run             ${runtime}
run             1000000
Generated 0 of 6 mixed pair_coeff terms from geometric mixing rule
Neighbor list info ...
  update every 1 steps, delay 10 steps, check yes
  max neighbors/atom: 2000, page size: 100000
  master list distance cutoff = 10.3
  ghost atom cutoff = 10.3
  binsize = 5.15, bins = 7 7 7
  1 neighbor lists, perpetual/occasional/extra = 1 0 0
  (1) pair lj/cut/coul/cut, perpetual
      attributes: half, newton on
      pair build: half/bin/newton
      stencil: half/bin/3d
      bin: standard
Per MPI rank memory allocation (min/avg/max) = 7.712 | 7.712 | 7.712 Mbytes
   Step          Temp         Density         Press          TotEng         PotEng         KinEng         E_pair         S/CPU     
         0   1.1904942      0.0023323615  -0.0016083997   21.901258      20.133374      1.7678839     -0.4149602      0            
      1000   0.91287314     0.0023323615   0.0032994161   20.99913       19.643513      1.3556166     -0.86858631     33332.721    
      2000   0.99516504     0.0023323615  -0.005116756    21.011245      19.533424      1.4778201     -0.99006341     30295.762    
      3000   0.92504304     0.0023323615  -0.0036482526   20.553427      19.179738      1.3736889     -1.3404292      25439.38     
      4000   0.86747281     0.0023323615  -0.00018544702  20.459145      19.170948      1.2881971     -1.3628416      20417.718    
      5000   0.95299632     0.0023323615   0.003521717    19.871728      18.456529      1.4151995     -2.0404432      18207.792    
      6000   1.0592577      0.0023323615   0.0010355811   20.096531      18.523534      1.5729976     -1.9186458      17991.447    
      7000   1.0434254      0.0023323615  -8.6332652e-05  20.326576      18.777089      1.5494867     -1.7594551      18148.05     
      8000   1.0540703      0.0023323615  -0.00058350997  20.225993      18.660699      1.5652944     -1.8241108      17984.87     
      9000   0.93953419     0.0023323615   0.005160685    20.066698      18.67149       1.3952083     -1.9077467      17894.302    
     10000   0.92594082     0.0023323615  -0.0027831015   20.323521      18.948499      1.3750221     -1.6948582      18024.762    
     11000   0.97162828     0.0023323615  -0.00054659269  20.089799      18.646931      1.442868      -1.8916829      17984.779    
     12000   1.0300789      0.0023323615  -0.002718984    20.34271       18.813042      1.5296672     -1.7547317      18057.47     
     13000   1.1143595      0.0023323615  -0.00040727007  20.398707      18.743883      1.6548238     -1.8461555      17929.029    
     14000   0.91655142     0.0023323615   0.0025458138   19.80396       18.442881      1.3610789     -1.9799746      18089.977    
     15000   0.93879821     0.0023323615  -0.0013138657   20.085435      18.69132       1.3941153     -1.8943377      18084.648    
     16000   0.92168728     0.0023323615   0.0034557429   19.974431      18.605725      1.3687056     -2.0769113      18018.424    
     17000   0.90081514     0.0023323615  -0.0048721309   20.095329      18.757618      1.3377105     -1.6588086      17957.68     
     18000   0.99096181     0.0023323615   0.0014935186   20.211392      18.739814      1.4715783     -1.9845568      17982.355    
     19000   0.97738691     0.0023323615  -0.0021926576   19.951007      18.499588      1.4514196     -1.9812723      18056.966    
     20000   0.94321046     0.0023323615  -0.0041850181   20.468808      19.068141      1.4006675     -1.5445422      18216.243    
     21000   1.0493383      0.0023323615   0.0017634533   20.3576        18.799332      1.5582673     -1.8059061      18289.027    
     22000   0.8904379      0.0023323615  -0.00057431748  19.998941      18.676641      1.3223003     -1.7634506      18242.521    
     23000   0.8928413      0.0023323615  -0.0027460702   19.864527      18.538657      1.3258693     -1.9808944      18073.314    
     24000   0.90745471     0.0023323615   0.0026652014   19.807481      18.459911      1.3475702     -2.0164567      17987.544    
     25000   0.99809752     0.0023323615   0.0038192378   19.927556      18.445381      1.4821748     -1.997756       18128.079    
     26000   0.95992853     0.0023323615  -0.0024261771   20.098614      18.67312       1.4254939     -1.8533529      18102.76     
     27000   0.96576461     0.0023323615   0.0024339177   20.074328      18.640167      1.4341604     -1.8726034      18161.592    
     28000   0.98941169     0.0023323615  -0.0014412294   20.107632      18.638356      1.4692764     -1.8821038      18015.106    
     29000   0.92956646     0.0023323615   0.00034339001  20.304958      18.924551      1.3804062     -1.6119927      18061.296    
     30000   0.93462425     0.0023323615   0.0013597495   20.236704      18.848787      1.387917      -1.7162202      17985.508    
     31000   0.9372314      0.0023323615   0.0019062852   19.734339      18.34255       1.3917886     -2.0839203      18121.576    
     32000   1.0292117      0.0023323615   0.0038077176   20.211852      18.683472      1.5283793     -1.843873       18088.535    
     33000   0.90376221     0.0023323615   0.00041245059  19.716146      18.374059      1.3420869     -2.1369503      18204.206    
     34000   0.91092033     0.0023323615  -0.00057454153  20.075945      18.723228      1.3527167     -1.8188468      18156.65     
     35000   1.0902726      0.0023323615   0.0010863778   20.462869      18.843815      1.6190547     -1.7542612      18049.293    
     36000   0.99662152     0.0023323615  -3.0652005e-06  20.363047      18.883064      1.479983      -1.6417917      18177.468    
     37000   1.0543118      0.0023323615  -0.0039350336   20.144437      18.578784      1.565653      -1.869655       18058.172    
     38000   0.96508407     0.0023323615   0.00027319275  20.55734       19.12419       1.4331498     -1.4431449      17983.972    
     39000   1.0200331      0.0023323615   0.00079273337  20.399475      18.884726      1.5147492     -1.563125       18183.717    
     40000   1.056269       0.0023323615  -0.0018575773   20.551546      18.982987      1.5685595     -1.5657321      18360.893    
     41000   0.88839672     0.0023323615  -0.00078974497  20.358561      19.039291      1.3192691     -1.3618674      18216.18     
     42000   0.95263251     0.0023323615  -0.002003525    20.202532      18.787872      1.4146593     -1.7369509      18121.309    
     43000   0.96019473     0.0023323615   0.00062137761  20.168267      18.742377      1.4258892     -1.7268795      18132.12     
     44000   0.94068767     0.0023323615   0.0019989191   20.222636      18.825715      1.3969212     -1.6680024      18146.79     
     45000   1.0606777      0.0023323615  -0.0019837302   20.442617      18.86751       1.5751064     -1.6565086      18333.131    
     46000   1.034464       0.0023323615   0.0030702358   20.3938        18.857621      1.536179      -1.7414797      18266.104    
     47000   0.95373271     0.0023323615  -0.0040237134   20.312006      18.895713      1.4162931     -1.652089       18049.283    
     48000   1.1011873      0.0023323615  -6.9910174e-05  20.405973      18.77071       1.6352632     -1.7856053      18061.361    
     49000   1.0241646      0.0023323615  -0.00042913481  20.071572      18.550687      1.5208844     -1.9511275      17894.421    
     50000   0.99906053     0.0023323615   0.0069024571   20.172339      18.688734      1.4836049     -1.8186603      17952.632    
     51000   1.1291722      0.0023323615   0.0020511788   20.713724      19.036903      1.6768207     -1.4376952      18187.799    
     52000   0.98520005     0.0023323615  -0.0049080029   20.516311      19.053289      1.4630221     -1.5742097      18304.513    
     53000   1.0869709      0.0023323615  -0.00094560694  20.293978      18.679827      1.6141518     -1.9021248      18195.77     
     54000   0.99085651     0.0023323615  -0.0010167488   20.151542      18.68012       1.4714219     -1.9229136      18096.543    
     55000   1.0388092      0.0023323615   0.00066247042  19.873813      18.331181      1.5426316     -2.0078044      18012.561    
     56000   1.0295345      0.0023323615   0.0017348867   20.388525      18.859666      1.5288587     -1.8012223      17986.967    
     57000   1.0571043      0.0023323615   0.0012963552   20.339093      18.769293      1.5697998     -1.7575945      17978.122    
     58000   0.94818945     0.0023323615  -0.00080300869  20.014449      18.606388      1.4080613     -1.9194636      17398.943    
     59000   0.92662724     0.0023323615  -0.0039249294   19.933702      18.557661      1.3760415     -1.9528477      17918.565    
     60000   0.93713898     0.0023323615  -0.0054188731   19.992205      18.600554      1.3916514     -2.0416597      17865.233    
     61000   1.1643801      0.0023323615   0.0040786222   20.342919      18.613815      1.7291044     -1.8916693      17937.255    
     62000   1.0677833      0.0023323615   0.002088352    20.088565      18.502907      1.5856582     -1.9917477      17887.847    
     63000   0.98583836     0.0023323615  -0.00018969024  19.837325      18.373355      1.46397       -2.1419968      17925.677    
     64000   1.048168       0.0023323615  -0.0011097987   20.187908      18.631379      1.5565294     -1.8662178      18092.574    
     65000   1.0112487      0.0023323615   0.0025724744   19.767185      18.265481      1.5017043     -2.1869109      17984.747    
     66000   1.0551239      0.0023323615   0.0017972844   20.073775      18.506916      1.566859      -1.90767        18081.722    
     67000   0.97702759     0.0023323615  -0.0012275116   19.973748      18.522862      1.450886      -1.8648053      18208.663    
     68000   1.0181536      0.0023323615  -0.00014533251  19.977455      18.465496      1.5119581     -2.0352663      17954.595    
     69000   0.92462417     0.0023323615  -0.0015030033   19.857395      18.484329      1.3730669     -2.0701494      17978.679    
     70000   1.0789864      0.0023323615   0.0019647087   20.305705      18.70341       1.6022948     -1.8049451      18025.622    
     71000   1.0023417      0.0023323615   0.0012859546   20.130943      18.642466      1.4884774     -1.7483404      18068.364    
     72000   1.0540551      0.0023323615   0.0010155437   20.014187      18.448915      1.5652718     -2.049349       17985.79     
     73000   0.93308255     0.0023323615   0.0036277934   20.289609      18.903982      1.3856276     -1.5912981      18113.877    
     74000   0.9829669      0.0023323615   0.0020145394   20.09877       18.639064      1.4597058     -1.9450889      18108.553    
     75000   0.90992263     0.0023323615   0.0026496965   19.961194      18.609959      1.3512351     -1.8773591      18124.011    
     76000   0.98704456     0.0023323615   7.0570461e-05  20.01505       18.549289      1.4657612     -2.0113176      18105.781    
     77000   1.0825077      0.0023323615  -0.0030553032   20.294207      18.686683      1.6075239     -1.8396985      17767.086    
     78000   0.91559933     0.0023323615  -2.5583803e-05  20.1693        18.809635      1.359665      -1.7978626      17903.941    
     79000   1.0002726      0.0023323615   0.00063476976  20.210456      18.725051      1.4854048     -1.8565944      18121.777    
     80000   1.02427        0.0023323615   0.00082657071  20.50651       18.985469      1.5210409     -1.551008       18187.806    
     81000   1.0763462      0.0023323615   0.0013182277   20.21002       18.611646      1.5983741     -1.9319407      18115.245    
     82000   0.96171999     0.0023323615  -0.0031855363   20.202246      18.774091      1.4281542     -1.8171281      18031.89     
     83000   0.9679489      0.0023323615   0.00055915828  20.080903      18.643499      1.4374041     -1.8488376      17989.832    
     84000   0.88998933     0.0023323615   0.0021370991   19.972115      18.650481      1.3216342     -1.7083986      18174.605    
     85000   1.0098591      0.0023323615   0.002096749    20.577084      19.077443      1.4996408     -1.5621271      18164.382    
     86000   1.0766776      0.0023323615  -0.00024144522  20.406085      18.807219      1.5988663     -1.6663449      18291.511    
     87000   0.98901335     0.0023323615  -0.00028895826  20.072848      18.604163      1.4686848     -1.7280468      18191.973    
     88000   1.0300772      0.0023323615   0.00037088465  20.118758      18.589093      1.5296647     -1.8865555      18183.827    
     89000   0.91970313     0.0023323615   0.0047958723   19.769909      18.404149      1.3657592     -1.9689875      18099.546    
     90000   1.0085471      0.0023323615   0.0015876807   19.719525      18.221832      1.4976925     -2.2774289      18102.878    
     91000   0.92048953     0.0023323615   0.001129604    19.897314      18.530387      1.3669269     -1.8661931      17901.125    
     92000   1.0046033      0.0023323615   0.003912781    20.097647      18.605811      1.4918359     -1.8661978      17836.909    
     93000   1.0559311      0.0023323615   0.00076982022  20.508946      18.940888      1.5680576     -1.6329813      18104.027    
     94000   1.1225835      0.0023323615   0.0028636341   20.364613      18.697577      1.6670364     -1.7191043      18008.853    
     95000   0.9597575      0.0023323615  -0.00052301866  19.996646      18.571406      1.4252399     -1.9365037      18106.983    
     96000   0.98455173     0.0023323615  -0.0025478028   20.015456      18.553396      1.4620593     -1.9566158      18019.978    
     97000   1.0837306      0.0023323615   0.0010135878   20.303926      18.694586      1.60934       -1.788513       17908.654    
     98000   1.1125794      0.0023323615   0.0015513638   20.384102      18.731922      1.6521804     -1.8384817      17995.852    
     99000   0.88614153     0.0023323615  -0.0016929444   20.226037      18.910117      1.3159202     -1.7285013      18058.956    
    100000   0.97623384     0.0023323615  -0.00010823326  20.233441      18.783734      1.4497072     -1.8643318      17960.065    
    101000   1.033564       0.0023323615  -0.0014125514   20.082736      18.547894      1.5348425     -1.8051906      18164.478    
    102000   1.0256622      0.0023323615  -0.0042385991   20.253713      18.730605      1.5231083     -1.7859501      18227.706    
    103000   1.0087466      0.0023323615   0.00040474979  20.337762      18.839773      1.4979886     -1.7447826      18217.742    
    104000   0.96531471     0.0023323615  -0.0032762039   19.892692      18.4592        1.4334923     -2.0543369      18094.814    
    105000   1.1301086      0.0023323615   0.0034230099   20.040057      18.361845      1.6782112     -2.1327536      17988.114    
    106000   1.0256519      0.0023323615  -0.0045044075   20.041797      18.518703      1.5230931     -1.9883189      17926.718    
    107000   1.0057101      0.0023323615  -0.0013748417   20.228722      18.735242      1.4934795     -1.8284828      18109.749    
    108000   1.118591       0.0023323615  -0.001951229    20.423595      18.762488      1.6611077     -1.8241082      18084.183    
    109000   0.8962752      0.0023323615  -0.0020902506   20.13144       18.800471      1.3309687     -1.8201838      18093.296    
    110000   1.012413       0.0023323615  -0.0022494809   20.285513      18.78208       1.5034333     -1.8100747      17990.507    
    111000   0.90576936     0.0023323615  -0.0028078753   19.977777      18.63271       1.3450675     -1.9574266      18180.409    
    112000   1.0404163      0.0023323615   0.00094400337  20.427299      18.882281      1.5450182     -1.7431369      18086.929    
    113000   1.0493806      0.0023323615   0.0011936394   20.095098      18.536768      1.5583302     -1.9452409      18115.021    
    114000   0.87279929     0.0023323615  -0.0048077141   19.88476       18.588653      1.2961069     -1.9244593      18015.945    
    115000   0.94660818     0.0023323615  -0.0013517236   19.941955      18.536241      1.4057131     -1.9478195      17962.702    
    116000   1.0839956      0.0023323615   0.0022208217   20.273063      18.66333       1.6097335     -1.8684659      18016.505    
    117000   1.0669446      0.0023323615  -0.0045637167   20.453367      18.868954      1.5844127     -1.7157172      18057.96     
    118000   1.0501476      0.0023323615  -0.0024130152   20.274841      18.715371      1.5594693     -1.9022924      18134.34     
    119000   1.0386858      0.0023323615   0.0010573766   20.11874       18.576292      1.5424484     -1.917338       18137.725    
    120000   1.0164487      0.0023323615   0.004729593    20.336129      18.826702      1.5094263     -1.7654357      18014.707    
    121000   1.113417       0.0023323615   0.0024801193   20.31914       18.665716      1.6534242     -1.8827618      17965.55     
    122000   1.0554241      0.0023323615   0.0042999937   20.15739       18.590085      1.5673048     -1.8835765      18046.797    
    123000   1.0058745      0.0023323615   0.0036596431   20.289319      18.795595      1.4937236     -1.6837855      17979.016    
    124000   0.89512775     0.0023323615  -0.0010278649   19.906126      18.576862      1.3292647     -1.9386547      18160.819    
    125000   1.0823102      0.0023323615   0.0034039957   20.433823      18.826592      1.6072306     -1.7462103      18075.808    
    126000   0.94148975     0.0023323615  -0.0029812154   20.171224      18.773112      1.3981123     -1.7816371      18058.962    
    127000   1.0584543      0.0023323615  -0.0019416779   20.255754      18.683949      1.5718047     -1.8980008      17938.813    
    128000   0.94532391     0.0023323615   0.00321212     20.227275      18.823469      1.403806      -1.8014681      17927.915    
    129000   1.0477786      0.0023323615  -0.00033038497  20.213818      18.657867      1.5559513     -1.7559234      17996.894    
    130000   1.053887       0.0023323615  -0.0031414188   20.084635      18.519613      1.5650223     -2.0390874      18072.437    
    131000   1.0044852      0.0023323615  -0.00028652626  19.93599       18.444329      1.4916606     -2.1008643      18101.653    
    132000   0.90318029     0.0023323615   7.1454423e-05  19.942171      18.600948      1.3412227     -1.9676899      18207.59     
    133000   0.94151681     0.0023323615   0.002538751    19.735431      18.337278      1.3981525     -2.1082602      18150.769    
    134000   0.91354153     0.0023323615  -0.0044936871   20.262683      18.906074      1.3566092     -1.7441073      18273.809    
    135000   0.94073221     0.0023323615   0.0042420642   20.138425      18.741438      1.3969873     -1.8163193      18136.828    
    136000   1.0214765      0.0023323615  -0.0044556522   20.433575      18.916682      1.5168927     -1.6225132      18130.397    
    137000   1.0698116      0.0023323615  -0.00310952     20.452173      18.863503      1.5886702     -1.7174536      18115.047    
    138000   1.0569985      0.0023323615   0.0019610826   20.249014      18.679371      1.5696427     -1.87997        17975.82     
    139000   0.95772559     0.0023323615  -0.001344107    19.944215      18.521992      1.4222225     -1.9661253      17993.095    
    140000   1.0996967      0.0023323615  -0.0011480774   20.375231      18.742182      1.6330496     -1.8728464      17970.92     
    141000   1.0621789      0.0023323615   0.0030108586   19.994882      18.417546      1.5773356     -2.0105417      18003.561    
    142000   1.1761397      0.0023323615   0.0024189632   20.365234      18.618667      1.7465675     -1.8608284      18058.943    
    143000   1.0041374      0.0023323615   0.0042896011   20.257131      18.765987      1.491144      -1.7704838      18147.753    
    144000   1.0123008      0.0023323615  -0.0047724208   20.099689      18.596422      1.5032667     -1.8302402      18146.523    
    145000   1.1135619      0.0023323615   0.0036010492   20.349046      18.695406      1.6536394     -1.9210808      18071.511    
    146000   1.0732612      0.0023323615  -0.00016832153  20.40067       18.806877      1.5937929     -1.7698354      18107.098    
    147000   0.98166273     0.0023323615  -0.00056371174  20.61459       19.156821      1.4577691     -1.5243467      18143.583    
    148000   0.90302815     0.0023323615  -0.0030013294   20.124919      18.783922      1.3409968     -1.7560166      18082.99     
    149000   0.99742084     0.0023323615   0.00067101566  20.255421      18.774251      1.48117       -1.7795368      17982.206    
    150000   1.0527403      0.0023323615  -0.0031741271   20.263959      18.700639      1.5633193     -1.919823       17967.057    
    151000   1.1762574      0.0023323615  -0.00065222499  20.220949      18.474206      1.7467422     -2.0448814      17997.812    
    152000   1.1238472      0.0023323615  -0.0040094524   20.357781      18.688868      1.6689132     -1.8175563      17949.219    
    153000   0.88667857     0.0023323615  -0.0025238919   19.959358      18.642641      1.3167177     -1.7535118      18007.852    
    154000   0.92307512     0.0023323615  -0.0015918808   19.884989      18.514222      1.3707665     -2.0584739      17965.984    
    155000   0.99257153     0.0023323615   0.00050594445  19.998998      18.525029      1.4739687     -2.0400182      18067.671    
    156000   1.0958186      0.0023323615   0.0010535134   20.051075      18.423785      1.6272906     -2.1169275      18051.535    
    157000   1.0540346      0.0023323615   0.0007629594   20.26532       18.700078      1.5652414     -1.8082578      18029.809    
    158000   0.95131176     0.0023323615   0.0056839587   19.819703      18.407005      1.412698      -2.1553213      18100.038    
    159000   1.1513171      0.0023323615   0.00072680105  20.52501       18.815304      1.7097059     -1.7061876      18090.827    
    160000   0.97591495     0.0023323615   0.00040294126  20.115091      18.665858      1.4492337     -1.907348       18001.256    
    161000   1.0779385      0.0023323615   0.0017986608   20.189385      18.588647      1.6007387     -1.8383981      18029.741    
    162000   0.89808074     0.0023323615   0.00027260878  20.053825      18.720175      1.3336499     -1.8135414      18004.373    
    163000   0.96755854     0.0023323615  -0.0029467922   20.170945      18.73412       1.4368244     -1.8577627      18039.523    
    164000   1.0206338      0.0023323615  -0.0027378844   20.25351       18.737869      1.5156412     -1.732314       18086.319    
    165000   0.8903361      0.0023323615  -0.0058897665   20.133485      18.811336      1.3221491     -1.67617        18052.054    
    166000   0.99651135     0.0023323615  -0.00045473632  20.250076      18.770257      1.4798194     -1.8469007      18066.301    
    167000   1.0053159      0.0023323615  -0.00053119687  20.17867       18.685776      1.4928941     -1.8480979      18100.173    
    168000   1.0532263      0.0023323615  -0.0013453271   20.275426      18.711385      1.564041      -1.7032427      18040.922    
    169000   1.0174875      0.0023323615  -0.0033628868   20.348855      18.837886      1.5109689     -1.649412       18008.642    
    170000   1.1314698      0.0023323615   0.0024485872   20.077519      18.397286      1.6802326     -2.0468276      18030.5      
    171000   0.90506156     0.0023323615  -0.0025886175   19.731804      18.387788      1.3440164     -2.1052092      17870.041    
    172000   1.0371454      0.0023323615   0.001016122    20.267167      18.727006      1.540161      -1.7778702      17952.218    
    173000   0.90812907     0.0023323615  -0.0018172272   19.985105      18.636534      1.3485717     -1.9035325      18094.582    
    174000   1.0306724      0.0023323615   0.00037052115  20.367738      18.837189      1.5305485     -1.7240227      18025.586    
    175000   1.1046179      0.0023323615   0.00060408127  20.359318      18.71896       1.6403576     -1.7765412      17928.002    
    176000   0.95831963     0.0023323615  -0.0026492134   19.86016       18.437056      1.4231047     -2.0979586      17931.432    
    177000   1.0238871      0.0023323615   0.00040587162  20.232062      18.711589      1.5204723     -1.7790448      18032.48     
    178000   0.98028749     0.0023323615   0.00070216664  20.082134      18.626407      1.4557269     -1.9253767      18153.262    
    179000   1.0139276      0.0023323615   0.0039835326   20.196838      18.691155      1.5056824     -1.9112605      18062.793    
    180000   0.97422819     0.0023323615   0.0036192026   20.296315      18.849586      1.4467289     -1.6165328      17909.428    
    181000   1.0372728      0.0023323615   0.00048775326  20.450344      18.909993      1.5403502     -1.5376697      18082.233    
    182000   0.95877847     0.0023323615  -0.0026052861   20.055205      18.631419      1.423786      -1.8656707      18117.392    
    183000   0.96174595     0.0023323615  -0.00046894489  20.184892      18.756699      1.4281927     -1.8880672      17876.992    
    184000   1.0152803      0.0023323615  -0.0015680855   20.131652      18.62396       1.5076912     -1.7994474      17778.35     
    185000   1.0363009      0.0023323615   0.0019069151   20.38731       18.848403      1.5389069     -1.716725       17901.818    
    186000   1.1230119      0.0023323615   0.0041684316   20.455573      18.787901      1.6676726     -1.7581427      18109.634    
    187000   1.1152309      0.0023323615  -0.001071721    20.612081      18.955963      1.6561179     -1.5348526      18272.173    
    188000   1.0545276      0.0023323615  -0.0060170406   20.415263      18.84929       1.5659735     -1.6464622      18155.646    
    189000   1.0979373      0.0023323615  -0.0011624907   20.400257      18.76982       1.6304369     -1.7229818      17945.602    
    190000   1.1051506      0.0023323615  -0.004103323    20.562162      18.921014      1.6411486     -1.5998926      17900.679    
    191000   0.92070788     0.0023323615  -0.00083964836  19.912048      18.544796      1.3672512     -1.971541       17759.553    
    192000   1.0256084      0.0023323615   0.0017469316   20.218262      18.695233      1.5230285     -1.8525044      17841.264    
    193000   0.96555031     0.0023323615  -0.0011041424   19.859027      18.425185      1.4338422     -2.0279808      17942.882    
    194000   1.0830788      0.0023323615   0.0014484207   20.337844      18.729472      1.608372      -1.823776       17902.949    
    195000   0.9402363      0.0023323615  -0.00017247185  19.985153      18.588902      1.3962509     -1.9530314      17965.075    
    196000   1.0564919      0.0023323615   0.0045391663   20.226284      18.657393      1.5688905     -1.8841898      17890.271    
    197000   0.98386472     0.0023323615  -0.00095166867  20.067947      18.606908      1.4610391     -1.9757024      17881.236    
    198000   1.1355998      0.0023323615   0.0028563514   20.135759      18.449393      1.6863657     -2.1282926      17970.807    
    199000   1.0747586      0.0023323615   0.0011456147   20.22827       18.632254      1.5960165     -1.8989144      17934.316    
    200000   1.1036475      0.0023323615  -0.0017676006   20.098265      18.459349      1.6389165     -1.997523       17939.502    
    201000   0.93104659     0.0023323615   0.002466332    20.153378      18.770774      1.3826042     -1.8401298      18060.426    
    202000   0.99135638     0.0023323615  -0.001843388    20.13055       18.658386      1.4721642     -1.8095751      17973.7      
    203000   1.0043622      0.0023323615   0.0010055258   19.977371      18.485893      1.4914779     -1.9325388      17918.16     
    204000   0.92014761     0.0023323615   0.0023651382   19.858212      18.491793      1.3664192     -1.9385371      17883.747    
    205000   1.0026221      0.0023323615  -0.0017190275   20.137503      18.648609      1.4888938     -1.8651115      17991.843    
    206000   1.0755839      0.0023323615  -0.00024499093  20.080049      18.482807      1.5972421     -1.8764077      17892.326    
    207000   0.95311099     0.0023323615  -0.0009814557   20.252218      18.836848      1.4153698     -1.6824323      17954.789    
    208000   0.97661287     0.0023323615   0.00094879173  19.977987      18.527717      1.4502701     -1.9449699      17874.14     
    209000   0.92995485     0.0023323615  -0.00042554948  20.038284      18.657301      1.380983      -1.8672022      17869.228    
    210000   1.1247814      0.0023323615  -7.5566117e-05  20.208512      18.538211      1.6703003     -1.8965865      18051.307    
    211000   1.0017901      0.0023323615  -0.00012449262  20.113641      18.625983      1.4876583     -1.957265       17999.312    
    212000   0.93791625     0.0023323615  -0.0011684811   20.10254       18.709735      1.3928056     -1.7822864      18031.936    
    213000   1.0725977      0.0023323615   0.0027074487   19.99553       18.402723      1.5928076     -2.0705511      18028.721    
    214000   0.95515997     0.0023323615   0.00078436245  20.290671      18.872259      1.4184126     -1.608925       18190.312    
    215000   0.91206777     0.0023323615  -0.0011470933   20.17765       18.823229      1.3544206     -1.6777666      18159.213    
    216000   1.0578852      0.0023323615   0.0019666197   20.278561      18.707602      1.5709595     -1.9364444      18017.383    
    217000   1.0286752      0.0023323615   0.005659858    20.188021      18.660439      1.5275826     -1.8904274      18003.844    
    218000   0.93991314     0.0023323615  -0.00021420615  20.093375      18.697604      1.395771      -1.8796322      17994.717    
    219000   0.88298328     0.0023323615  -0.0008019457   20.254748      18.943517      1.3112302     -1.5162744      17959.192    
    220000   1.044534       0.0023323615   0.0027779324   20.265157      18.714024      1.5511329     -1.9115518      17869.41     
    221000   1.0066532      0.0023323615   0.0019356307   20.124627      18.629747      1.49488       -1.9487345      17872.812    
    222000   1.0586447      0.0023323615  -0.0032716092   20.13028       18.558193      1.5720874     -1.9343394      17985.816    
    223000   1.0024091      0.0023323615  -0.0040127889   20.17128       18.682703      1.4885775     -1.9279428      17956.381    
    224000   1.1363945      0.0023323615  -0.0011855216   20.332013      18.644468      1.6875459     -1.8844141      18002.922    
    225000   0.98549382     0.0023323615   0.001360233    20.07949       18.616032      1.4634583     -1.8610147      17797.356    
    226000   1.0389865      0.0023323615  -0.0012449122   20.284089      18.741194      1.5428949     -1.7233018      17719.459    
    227000   1.0764986      0.0023323615  -0.0017624734   20.591515      18.992915      1.5986004     -1.5106773      17912.141    
    228000   1.1506502      0.0023323615  -0.0033577109   20.466573      18.757858      1.7087155     -1.6680514      18007.05     
    229000   1.0933372      0.0023323615  -0.0018765558   20.650668      19.027062      1.6236058     -1.5684339      17953.087    
    230000   1.0879022      0.0023323615   0.00017890295  20.552203      18.936668      1.6155348     -1.5471254      18005.39     
    231000   1.0575988      0.0023323615   0.0010951807   20.053854      18.48332       1.5705343     -2.035384       17894.418    
    232000   1.0038363      0.0023323615   0.0020262798   20.251251      18.760554      1.4906969     -1.8674227      17862.269    
    233000   1.108983       0.0023323615   0.0013942572   20.05485       18.40801       1.6468398     -2.0987312      17766.859    
    234000   0.99961488     0.0023323615  -0.0015242325   20.285871      18.801443      1.4844281     -1.7288346      17989.901    
    235000   0.89354509     0.0023323615   0.0011749875   19.600997      18.274083      1.3269145     -2.1198023      18001.98     
    236000   0.89388221     0.0023323615   0.0016415506   19.897042      18.569627      1.3274151     -1.9630413      17930.421    
    237000   0.98971138     0.0023323615  -0.00634622     20.077704      18.607982      1.4697214     -2.0787443      17916.398    
    238000   0.83602072     0.0023323615   0.00038892339  19.857222      18.615731      1.2414908     -1.8309641      18072.028    
    239000   0.97324219     0.0023323615  -0.00054345503  19.989857      18.544593      1.4452647     -1.9641442      17895.197    
    240000   1.0234174      0.0023323615  -0.0011432785   19.987825      18.468051      1.5197748     -1.9290815      17791.285    
    241000   0.91934822     0.0023323615   0.0019680916   19.913911      18.548679      1.3652321     -1.8451018      17896.349    
    242000   0.86177532     0.0023323615  -0.002864263    20.027125      18.747389      1.2797363     -1.7578275      18112.109    
    243000   0.91954006     0.0023323615  -0.0039635856   20.174804      18.809287      1.365517      -1.8023745      18053.237    
    244000   1.001478       0.0023323615   0.0017953386   20.086803      18.599608      1.4871948     -1.9240093      17898.499    
    245000   1.123933       0.0023323615   0.0026943956   20.37163       18.70259       1.6690405     -1.8468842      17985.135    
    246000   1.1084286      0.0023323615   0.0043393719   20.399095      18.753079      1.6460165     -1.7919173      17943.279    
    247000   1.0377799      0.0023323615  -0.00038562517  20.2149        18.673797      1.5411031     -1.9798229      17955.796    
    248000   0.9431456      0.0023323615   0.0018166453   20.228607      18.828036      1.4005712     -1.7508607      17925.201    
    249000   1.0191771      0.0023323615   0.0032548237   20.128739      18.615261      1.513478      -1.862189       17869.395    
    250000   1.039001       0.0023323615  -0.0015397083   20.062415      18.519498      1.5429165     -1.8955996      17827.361    
    251000   1.0345085      0.0023323615  -0.0001961789   19.922218      18.385973      1.5362451     -2.0214752      18073.904    
    252000   1.0290557      0.0023323615  -6.8856091e-05  20.421478      18.893331      1.5281478     -1.5446858      18093.191    
    253000   0.91183779     0.0023323615  -0.003931494    20.066305      18.712226      1.3540791     -1.827401       18071.665    
    254000   0.92302792     0.0023323615   0.0015668999   19.950984      18.580287      1.3706965     -1.8872647      17993.53     
    255000   0.94130155     0.0023323615  -0.00026408139  20.008683      18.610851      1.3978328     -1.8890195      17912.912    
    256000   1.0931925      0.0023323615   0.0029549379   20.25462       18.63123       1.6233909     -1.7972578      17840.052    
    257000   1.0271104      0.0023323615   0.002490686    20.141633      18.616374      1.5252589     -1.9176374      17937.197    
    258000   1.0888793      0.0023323615  -0.0013871451   20.350686      18.7337        1.6169857     -1.7010929      17978.089    
    259000   0.97808785     0.0023323615   0.0024622902   19.906054      18.453594      1.4524605     -2.0996706      17992.18     
    260000   0.94148215     0.0023323615   0.0047173513   19.818725      18.420624      1.398101      -2.0027052      18087.319    
    261000   0.94224478     0.0023323615  -0.0020531929   20.270799      18.871566      1.3992335     -1.6814046      18052.43     
    262000   1.0877739      0.0023323615  -0.00030963888  20.390434      18.775089      1.6153443     -1.6889057      17956.601    
    263000   1.0821939      0.0023323615   0.002186874    20.423258      18.8162        1.6070579     -1.6749674      18063.836    
    264000   0.9653222      0.0023323615  -0.0019539843   20.056292      18.622789      1.4335035     -1.8159165      18044.682    
    265000   0.91078062     0.0023323615  -0.0003558673   19.84863       18.496121      1.3525092     -2.0509186      17821.685    
    266000   1.1840492      0.0023323615   0.0043070469   20.256049      18.497736      1.758313      -2.0739279      17940.502    
    267000   0.80881915     0.0023323615   0.0037415745   20.227023      19.025927      1.2010964     -1.6247687      17979.265    
    268000   1.0509989      0.0023323615  -0.00011940016  20.175049      18.614315      1.5607334     -1.910437       17981.924    
    269000   0.98515682     0.0023323615   0.00041995272  20.257049      18.794091      1.4629579     -1.7166785      17983.648    
    270000   0.99044708     0.0023323615   0.0032084626   20.196889      18.726075      1.4708139     -1.6769031      17861.384    
    271000   0.98587246     0.0023323615  -0.0021255392   20.022715      18.558695      1.4640206     -1.9932047      17931.29     
    272000   1.0080481      0.0023323615  -0.0028081438   19.984422      18.48747       1.4969515     -1.9152829      17939.747    
    273000   0.99009603     0.0023323615   0.003571599    19.78879       18.318498      1.4702926     -2.1572402      18137.237    
    274000   1.1086667      0.0023323615  -0.0034952896   20.050682      18.404312      1.64637       -2.1254739      17822.376    
    275000   1.0385324      0.0023323615   0.0010691278   19.931321      18.3891        1.5422206     -2.0596889      17813.781    
    276000   1.0995887      0.0023323615  -0.004339346    20.148723      18.515834      1.6328892     -2.0037671      17882.719    
    277000   0.8362109      0.0023323615  -0.00082556652  19.752168      18.510394      1.2417732     -1.9585117      17826.151    
    278000   1.1229093      0.0023323615  -0.001074079    20.379786      18.712266      1.6675204     -1.7366258      17941.128    
    279000   1.057652       0.0023323615  -0.0032805664   20.219763      18.64915       1.5706132     -1.8733377      18044.646    
    280000   1.0835188      0.0023323615  -0.0016252866   20.486652      18.877627      1.6090253     -1.7628282      17947.012    
    281000   1.121142       0.0023323615  -0.004764463    20.393437      18.728541      1.6648959     -1.7058919      17909.216    
    282000   0.99357932     0.0023323615  -0.0012624503   20.176773      18.701307      1.4754653     -1.9082741      18013.621    
    283000   0.99771847     0.0023323615   0.0040405768   19.887655      18.406043      1.4816119     -2.0395438      17897.585    
    284000   0.96846361     0.0023323615  -0.0006864506   19.887888      18.44972       1.4381685     -1.9431697      17910.148    
    285000   0.96068216     0.0023323615   0.0040664888   20.16217       18.735557      1.426613      -1.8161149      17987.446    
    286000   0.99529011     0.0023323615  -0.00051670816  20.25127       18.773264      1.4780058     -1.7898088      18049.815    
    287000   1.0214813      0.0023323615  -0.0036559691   20.372202      18.855303      1.5168997     -1.7628484      17988.296    
    288000   0.84298088     0.0023323615  -0.001551875    20.024856      18.77303       1.2518266     -1.7250109      17942.982    
    289000   0.93022827     0.0023323615  -0.0033543301   20.006709      18.62532       1.381389      -1.7760352      17991.953    
    290000   0.97449209     0.0023323615   0.0013220008   20.10788       18.660759      1.4471208     -1.7328239      17975.652    
    291000   0.95127428     0.0023323615   0.0010298084   20.155823      18.74318       1.4126423     -1.6873714      18101.46     
    292000   0.9243027      0.0023323615  -0.00037799628  20.267606      18.895017      1.3725895     -1.5500417      18127.839    
    293000   0.92118821     0.0023323615  -0.00057009558  20.020631      18.652666      1.3679645     -1.9134592      17828.711    
    294000   0.95908777     0.0023323615   0.0012517838   20.183691      18.759445      1.4242453     -1.7576557      17923.782    
    295000   0.97438648     0.0023323615   0.00057680175  20.342578      18.895614      1.4469639     -1.6953159      18021.424    
    296000   1.1180406      0.0023323615   0.00044423351  20.412608      18.752318      1.6602902     -1.6255615      18209.128    
    297000   1.0457168      0.0023323615  -8.2757094e-05  20.380508      18.827618      1.5528895     -1.7743581      18130.717    
    298000   1.0108443      0.0023323615   0.00176545     20.186759      18.685655      1.5011039     -1.8475831      18076.673    
    299000   0.95650385     0.0023323615  -0.0061624576   19.970493      18.550085      1.4204082     -1.9781025      17992.274    
    300000   0.93285915     0.0023323615  -0.0003834795   20.031182      18.645886      1.3852958     -1.8929253      17874.338    
    301000   1.042431       0.0023323615  -0.0011191588   20.302226      18.754216      1.5480101     -1.8654643      18041.649    
    302000   1.0108826      0.0023323615   0.0064008376   20.029106      18.527945      1.5011607     -1.991778       18121.98     
    303000   1.0870003      0.0023323615   0.0017605281   20.182831      18.568636      1.6141955     -2.0181351      17835.229    
    304000   1.0695419      0.0023323615  -0.0037353697   20.034134      18.445864      1.5882697     -2.1818633      17915.504    
    305000   1.1172921      0.0023323615  -0.00036707772  20.252135      18.592956      1.6591788     -1.9644436      17840.014    
    306000   0.97219295     0.0023323615  -0.0016948007   20.155825      18.712119      1.4437065     -1.825045       17966.168    
    307000   0.96140171     0.0023323615   0.0003416352   20.064967      18.637286      1.4276815     -1.9182543      17955.257    
    308000   0.93234761     0.0023323615  -0.0014100871   20.130383      18.745847      1.3845362     -1.8233646      17856.99     
    309000   0.87329343     0.0023323615   0.0018736698   19.991612      18.694771      1.2968407     -1.7749764      17955.415    
    310000   1.1223402      0.0023323615   0.0025823522   19.986264      18.319589      1.6666752     -2.1358785      17935.134    
    311000   0.8170379      0.0023323615  -0.0024849142   19.916639      18.703338      1.2133013     -1.8778104      17957.279    
    312000   0.96810759     0.0023323615   0.0034229432   20.207345      18.769706      1.4376398     -1.8830696      17942.563    
    313000   0.91430165     0.0023323615   0.00059910774  19.909203      18.551465      1.3577379     -1.9794942      18038.03     
    314000   0.99335366     0.0023323615  -0.00064377628  19.808681      18.333551      1.4751302     -2.1307701      18017.185    
    315000   1.2182105      0.0023323615   0.0010137696   20.275297      18.466254      1.8090426     -1.9804742      18012.633    
    316000   1.0317363      0.0023323615   0.0011270063   19.989405      18.457277      1.5321284     -2.0345729      17950.181    
    317000   1.152429       0.0023323615  -0.0032517994   20.309158      18.597801      1.7113571     -1.978736       18013.575    
    318000   1.0408738      0.0023323615  -0.0018454971   20.137945      18.592247      1.5456976     -1.8596195      18093.378    
    319000   1.0221412      0.0023323615   0.00094096484  20.330192      18.812313      1.5178797     -1.7650924      17988.614    
    320000   1.0733832      0.0023323615   0.00063637779  20.338748      18.744774      1.5939741     -1.8388398      18184.115    
    321000   0.93951296     0.0023323615  -0.0010940693   19.981862      18.586685      1.3951767     -1.9404162      18258.863    
    322000   1.0321253      0.0023323615  -0.0024933476   19.967709      18.435003      1.532706      -2.0528763      18126.802    
    323000   1.1490397      0.0023323615  -0.0018071137   20.165365      18.459041      1.7063239     -1.9796657      18181.299    
    324000   0.83231697     0.0023323615   0.0022598307   20.337308      19.101317      1.2359907     -1.5249136      18271.865    
    325000   1.0005678      0.0023323615   0.0031966889   20.054673      18.56883       1.4858432     -1.9637542      18165.013    
    326000   1.0897111      0.0023323615  -0.00072514223  20.125261      18.50704       1.618221      -1.9589623      18242.611    
    327000   0.88044783     0.0023323615   0.0036850688   19.753134      18.445669      1.307465      -2.0201933      18120.444    
    328000   0.95670088     0.0023323615   3.3973063e-05  20.332262      18.911562      1.4207008     -1.7176588      17916.318    
    329000   1.1009652      0.0023323615   0.00097799477  20.374305      18.739372      1.6349333     -1.8434772      18063.24     
    330000   0.97805347     0.0023323615   0.006339555    20.091486      18.639076      1.4524094     -1.7601963      17985.417    
    331000   0.80128473     0.0023323615  -0.0029204955   19.640984      18.451076      1.1899078     -1.9999009      18013.435    
    332000   0.98859606     0.0023323615   0.0017720038   19.958981      18.490916      1.4680651     -1.9218314      18074.908    
    333000   0.92316163     0.0023323615  -4.2183762e-05  19.892242      18.521347      1.370895      -2.0148971      18182.651    
    334000   0.76318755     0.0023323615  -0.00076821337  19.852561      18.719228      1.1333335     -1.7572398      18128.073    
    335000   1.0606754      0.0023323615   0.0040998086   20.210009      18.634906      1.5751029     -1.6929137      18094.805    
    336000   1.0431058      0.0023323615  -0.00023421263  20.166616      18.617604      1.5490122     -1.8968168      18133.77     
    337000   1.0638908      0.0023323615   0.0006408141   20.088916      18.509038      1.5798779     -2.0840889      18295.947    
    338000   0.99364023     0.0023323615  -0.00021348712  19.8721        18.396545      1.4755557     -2.1080344      18341.246    
    339000   1.1084642      0.0023323615   0.0033157819   20.122256      18.476187      1.6460693     -2.0720437      18370.855    
    340000   1.0037083      0.0023323615  -0.0021025353   20.022986      18.532479      1.4905068     -2.0346738      18357.246    
    341000   1.1283618      0.0023323615  -0.00025598978  20.231763      18.556146      1.6756173     -1.9791615      18406.09     
    342000   1.0074848      0.0023323615   0.0039446931   19.705799      18.209684      1.4961149     -2.179664       18024.743    
    343000   0.8557648      0.0023323615   0.0031079754   19.963114      18.692303      1.2708107     -1.9183509      18003.571    
    344000   1.0940477      0.0023323615   0.00047330792  20.276847      18.652186      1.6246608     -1.8425236      18046.356    
    345000   0.93772746     0.0023323615  -0.0011976602   20.151485      18.75896       1.3925253     -1.7389158      17862.535    
    346000   0.88396993     0.0023323615  -0.0030652392   19.942164      18.629469      1.3126953     -1.9477771      17914.684    
    347000   0.81079507     0.0023323615   0.0032729764   20.147753      18.943723      1.2040307     -1.7476158      17876.262    
    348000   0.9883706      0.0023323615  -0.0013141141   20.389093      18.921363      1.4677303     -1.5580015      17799.804    
    349000   0.92741142     0.0023323615   0.0043663018   20.007685      18.630479      1.377206      -1.9420364      17827.772    
    350000   0.87522752     0.0023323615  -0.0033477617   19.868874      18.569162      1.2997129     -1.9184242      17854.266    
    351000   1.068522       0.0023323615  -0.0012430795   20.128011      18.541256      1.5867552     -2.0234629      17754.836    
    352000   0.99976832     0.0023323615  -0.0018864906   20.137745      18.653089      1.484656      -1.794144       17932.212    
    353000   0.98840412     0.0023323615   0.0015723893   20.152937      18.685157      1.4677801     -1.8238423      17938.774    
    354000   1.1075473      0.0023323615  -0.0012521995   20.58087       18.936162      1.6447078     -1.5772975      17858.779    
    355000   0.9049406      0.0023323615  -0.0050018134   19.823422      18.479585      1.3438368     -1.9423079      17788.659    
    356000   0.89899489     0.0023323615   0.0025291471   20.087046      18.752038      1.3350074     -1.8082259      17795.561    
    357000   1.0347873      0.0023323615  -0.0021920114   20.042874      18.506215      1.5366592     -1.9951052      17912.398    
    358000   0.96830486     0.0023323615  -0.0024980237   20.107773      18.66984       1.4379327     -1.8506138      17810.215    
    359000   0.97342109     0.0023323615  -0.0007391165   20.226396      18.780865      1.4455303     -1.8115946      17879.477    
    360000   0.98188915     0.0023323615   0.00041883397  19.999321      18.541215      1.4581054     -1.95811        17841.324    
    361000   0.96055833     0.0023323615  -0.0020859944   20.083483      18.657054      1.4264291     -1.975121       17874.172    
    362000   0.9505683      0.0023323615  -0.001893207    19.932719      18.521125      1.4115939     -1.9248094      17875.171    
    363000   1.0407895      0.0023323615   0.0025461881   19.857811      18.312239      1.5455724     -2.1305473      17937.597    
    364000   1.0860252      0.0023323615   0.002948446    20.160736      18.547989      1.6127474     -1.9053687      17879.621    
    365000   1.0752087      0.0023323615  -0.0037790664   19.968976      18.372291      1.5966849     -2.1382201      17791.726    
    366000   0.95325139     0.0023323615  -0.00062959005  19.99867       18.583091      1.4155783     -1.8668774      17896.459    
    367000   0.96729717     0.0023323615  -0.0031301604   20.05394       18.617504      1.4364363     -2.017107       17944.492    
    368000   0.90511211     0.0023323615   0.00013105925  20.028764      18.684672      1.3440915     -1.8446739      17851.769    
    369000   1.0760093      0.0023323615   0.0011387472   20.215504      18.61763       1.5978739     -1.919689       17807.835    
    370000   0.9264402      0.0023323615   0.0023225087   19.712245      18.336481      1.3757637     -2.1405554      17789.275    
    371000   0.95302895     0.0023323615   0.0033920031   20.022573      18.607325      1.415248      -1.9539602      17867.053    
    372000   1.0265046      0.0023323615   0.0044860788   20.216796      18.692437      1.5243593     -1.94296        18001.931    
    373000   0.99231277     0.0023323615  -0.0016662484   20.150439      18.676855      1.4735845     -1.9497517      18013.608    
    374000   1.1304095      0.0023323615   0.0015201763   20.066707      18.388049      1.6786581     -2.0430959      17965.883    
    375000   0.99704359     0.0023323615  -0.0031152302   20.284979      18.804369      1.4806097     -1.6067725      18301.623    
    376000   0.93695208     0.0023323615  -0.00073157134  20.252662      18.861288      1.3913738     -1.7381082      18547.767    
    377000   1.1519116      0.0023323615   0.0015600032   20.658894      18.948305      1.7105888     -1.6097335      18133.665    
    378000   1.0041899      0.0023323615  -0.00073361169  20.215698      18.724476      1.4912219     -1.7281849      17994.473    
    379000   1.1729929      0.0023323615   0.00024637495  20.577548      18.835653      1.7418945     -1.7337977      18162.382    
    380000   0.9495927      0.0023323615  -0.00060503224  20.377635      18.96749       1.4101452     -1.4869576      18267.682    
    381000   0.90561156     0.0023323615  -0.0005400907   20.365739      19.020906      1.3448332     -1.615555       18143.936    
    382000   0.90010826     0.0023323615   0.00047817725  20.328042      18.991382      1.3366608     -1.5195357      18177.405    
    383000   0.9930783      0.0023323615   0.0026025871   20.105192      18.630471      1.4747213     -1.8096221      17739.208    
    384000   0.89015815     0.0023323615   0.0020857059   19.829627      18.507742      1.3218848     -1.932174       17881.463    
    385000   1.1790008      0.0023323615  -0.00069533766  20.307923      18.557107      1.7508162     -2.0194135      17681.33     
    386000   1.060936       0.0023323615  -0.0026457622   20.462304      18.886815      1.5754899     -1.7391943      17903.784    
    387000   0.93064973     0.0023323615  -0.0041281199   20.299824      18.917809      1.3820149     -1.6547429      17830.759    
    388000   1.0609003      0.0023323615   0.0013038364   20.313501      18.738064      1.5754369     -1.7322112      17844.441    
    389000   0.80274685     0.0023323615  -0.00057475629  19.830331      18.638252      1.1920791     -1.8920449      17902.066    
    390000   1.0819415      0.0023323615   0.0013590825   20.168132      18.561449      1.6066831     -2.0214414      17978.582    
    391000   1.0175045      0.0023323615   2.274391e-05   20.032884      18.521889      1.5109942     -1.9555536      17886.856    
    392000   0.88027735     0.0023323615   0.0027679801   19.986601      18.679389      1.3072119     -1.8923564      17986.869    
    393000   0.94930083     0.0023323615   0.0043456136   19.959441      18.549729      1.4097117     -1.9208086      17952.296    
    394000   1.1128611      0.0023323615  -0.0024063296   20.196006      18.543407      1.6525988     -1.9346672      17958.937    
    395000   0.96579388     0.0023323615   0.0032113609   20.062242      18.628038      1.4342039     -1.7898262      17995.752    
    396000   0.96663868     0.0023323615  -0.0034985914   20.142361      18.706903      1.4354584     -1.6665555      18106.881    
    397000   1.0880347      0.0023323615   0.00010518385  19.922717      18.306985      1.6157315     -2.0945718      18139.798    
    398000   0.92940995     0.0023323615  -0.0019038238   20.073054      18.69288       1.3801738     -1.7963718      18032.369    
    399000   1.0369453      0.0023323615  -0.0031989151   20.349863      18.81          1.5398637     -1.8151398      18044.943    
    400000   1.0340225      0.0023323615   0.00026578258  20.405513      18.86999       1.5355234     -1.6473196      18010.92     
    401000   1.0581118      0.0023323615  -0.0010736913   20.456241      18.884945      1.571296      -1.6351885      18213.022    
    402000   0.9339622      0.0023323615  -0.0025301737   20.229246      18.842312      1.3869339     -1.6885241      17987.43     
    403000   1.0816335      0.0023323615   0.0020750232   20.233992      18.627767      1.6062258     -1.9244589      17887.629    
    404000   0.95463113     0.0023323615  -0.0019335001   20.330188      18.91256       1.4176272     -1.6171312      18046.78     
    405000   1.058226       0.0023323615  -0.00048775825  20.13928       18.567814      1.5714656     -1.8662273      18012.428    
    406000   0.96318135     0.0023323615   0.0051344887   19.801749      18.371425      1.4303243     -2.0952425      18068.815    
    407000   0.92354115     0.0023323615  -0.0031826065   20.319371      18.947913      1.3714586     -1.7170198      17996.956    
    408000   0.86559216     0.0023323615  -0.00099491086  19.94621       18.660806      1.2854044     -1.839708       18123.971    
    409000   0.94117884     0.0023323615   0.00030048643  20.318104      18.920453      1.3976506     -1.6212386      17967.452    
    410000   0.90309982     0.0023323615   0.0049625136   19.944604      18.603501      1.3411032     -1.8459805      17990.241    
[...]
    861000   1.0549441      0.0023323615  -0.00087217169  20.42137       18.854778      1.566592      -1.673948       17971.133    
    862000   0.99626481     0.0023323615  -0.0016086421   20.408382      18.928929      1.4794532     -1.5391895      17934.322    
    863000   0.90467462     0.0023323615  -0.0033068613   20.262082      18.918641      1.3434418     -1.6336617      17833.177    
    864000   1.0860821      0.0023323615   0.0088230401   20.273541      18.660709      1.6128319     -1.7865387      17852.362    
    865000   1.0091088      0.0023323615   0.0049856583   20.297949      18.799422      1.4985265     -1.7183433      17706.763    
    866000   0.93189465     0.0023323615  -0.0013866799   20.383247      18.999384      1.3838635     -1.5454171      17839.491    
    867000   1.0324805      0.0023323615   0.0012654961   20.42789       18.894657      1.5332336     -1.593828       17895.445    
    868000   0.87957094     0.0023323615  -0.0032473356   20.106956      18.800793      1.3061628     -1.9212625      17752.869    
    869000   0.98959626     0.0023323615   0.0040697272   20.285181      18.815631      1.4695504     -1.7049418      17849.502    
    870000   0.94377912     0.0023323615   0.0026213467   20.021731      18.620219      1.401512      -1.9883689      17889.85     
    871000   0.85296283     0.0023323615   0.00037004972  19.770555      18.503905      1.2666498     -2.0112932      17939.445    
    872000   1.0477342      0.0023323615  -0.0022362066   20.327527      18.771642      1.5558853     -1.7845795      17803.401    
    873000   1.0741171      0.0023323615  -0.0021758423   20.238294      18.64323       1.5950639     -2.0677196      17754.461    
    874000   1.0559884      0.0023323615  -0.00029680147  20.24519       18.677047      1.5681428     -1.7789703      17740.15     
    875000   0.89835136     0.0023323615   0.0013555684   19.811366      18.477314      1.3340518     -1.930135       17713.569    
    876000   0.95164817     0.0023323615  -0.00020489034  20.020764      18.607566      1.4131975     -1.9008689      18189.115    
    877000   0.8540037      0.0023323615  -0.0051455208   19.842906      18.574711      1.2681955     -1.9950586      18172.61     
    878000   1.0458462      0.0023323615   0.00044980177  20.469236      18.916155      1.5530817     -1.709119       17953.29     
    879000   1.0220111      0.0023323615  -0.0013669183   20.238794      18.721108      1.5176864     -1.7602916      17905.303    
    880000   1.0199147      0.0023323615   0.0054748441   20.033128      18.518555      1.5145733     -1.9080809      17858.626    
    881000   0.82220335     0.0023323615  -0.0024978189   20.03396       18.812988      1.220972      -1.7923843      17912.376    
    882000   1.0610641      0.0023323615  -0.0020925273   20.231553      18.655873      1.5756801     -1.8387498      17866.752    
    883000   0.99268925     0.0023323615   0.0023494418   20.006281      18.532138      1.4741435     -2.0133824      17845.87     
    884000   0.98130238     0.0023323615   0.0028954505   20.390271      18.933037      1.457234      -1.5909627      17799.48     
    885000   0.93119655     0.0023323615   0.0012654755   19.893504      18.510677      1.3828269     -1.9488857      17959.131    
    886000   0.86625731     0.0023323615   0.0012583112   20.03931       18.752918      1.2863921     -1.7931206      17874.489    
    887000   0.88973301     0.0023323615  -0.00071204445  19.870722      18.549468      1.3212535     -1.9490542      17727.031    
    888000   0.94751344     0.0023323615  -0.0038196245   19.939156      18.532099      1.4070575     -2.0754972      17864.952    
    889000   1.0936238      0.0023323615  -9.8723133e-06  20.457462      18.833431      1.6240314     -1.7072895      17935.318    
    890000   0.96287956     0.0023323615   0.0025193651   20.021106      18.59123       1.4298761     -2.0359929      17838.509    
    891000   0.91000534     0.0023323615   0.00024209215  20.230398      18.87904       1.3513579     -1.7387842      17806.647    
    892000   1.1476273      0.0023323615  -0.0043816931   20.51922       18.814994      1.7042266     -1.7006358      17787.471    
    893000   1.0312792      0.0023323615   0.001945425    20.187282      18.655832      1.5314495     -1.7810856      17843.091    
    894000   1.0902367      0.0023323615   0.0052831943   20.231513      18.612512      1.6190016     -1.9354031      17737.745    
    895000   1.0874668      0.0023323615   0.0027872775   20.2503        18.635411      1.6148882     -1.895935       17672.161    
    896000   1.0867626      0.0023323615   0.00098810996  20.387084      18.773242      1.6138424     -1.7974965      17820.069    
    897000   1.1623703      0.0023323615  -0.0025202997   20.42951       18.70339       1.7261199     -1.9221827      17644.988    
    898000   1.0673823      0.0023323615   0.0031914238   20.202228      18.617166      1.5850628     -1.8865298      17688.597    
    899000   0.91577395     0.0023323615   0.0044122414   20.258876      18.898952      1.3599243     -1.6657386      17876.304    
    900000   1.0629007      0.0023323615  -0.0036641147   20.350213      18.771805      1.5784075     -1.8902419      17956.081    
    901000   0.97660392     0.0023323615   3.5134474e-05  20.056292      18.606035      1.4502568     -1.9307512      17765.085    
    902000   1.1138023      0.0023323615   0.0018086839   20.301922      18.647926      1.6539965     -1.7646126      17817.925    
    903000   0.8762648      0.0023323615  -0.002848965    19.910544      18.609291      1.3012532     -1.9985481      17714.123    
    904000   0.96969206     0.0023323615   0.0014995518   20.257978      18.817986      1.4399927     -1.7761271      17776.801    
    905000   0.91989734     0.0023323615   0.0011312254   19.968109      18.602061      1.3660475     -1.9326558      17781.637    
    906000   1.0149536      0.0023323615   0.0027938447   20.066245      18.559039      1.5072061     -1.8689347      17754.855    
    907000   0.95449633     0.0023323615   0.0022996853   19.948133      18.530706      1.417427      -1.91948        17589.329    
    908000   1.0808762      0.0023323615  -0.0020944598   20.401539      18.796438      1.6051012     -1.7794912      17774.12     
    909000   0.81587858     0.0023323615   0.00083719673  19.632233      18.420653      1.2115797     -2.1132483      17670.916    
    910000   0.85499517     0.0023323615   0.0011698696   19.770838      18.50117       1.2696678     -1.9549013      17486.741    
    911000   1.1410619      0.0023323615  -0.00072572467  20.305893      18.611416      1.6944769     -1.7999585      17552.06     
    912000   1.0999363      0.0023323615  -0.00060289714  20.165662      18.532257      1.6334054     -1.9716354      17442.611    
    913000   1.0093598      0.0023323615   0.0023010684   20.041992      18.543093      1.4988992     -1.8770002      17653.567    
    914000   0.92076944     0.0023323615   0.001292793    20.105567      18.738224      1.3673426     -1.8432178      17651.135    
    915000   0.94205478     0.0023323615  -0.0029224381   20.000686      18.601735      1.3989514     -1.8887415      17863.602    
    916000   1.0128352      0.0023323615   0.0022007218   20.2171        18.713039      1.5040602     -1.6633887      17715.075    
    917000   1.0057671      0.0023323615  -0.00077638338  20.382827      18.889262      1.4935641     -1.6164059      17812.643    
    918000   0.94319725     0.0023323615   0.0033616982   20.056476      18.655829      1.4006479     -1.7410825      18043.655    
    919000   0.94315889     0.0023323615  -0.0041690829   20.071403      18.670812      1.4005909     -1.9509655      17727.166    
    920000   0.99130085     0.0023323615   0.0020630591   20.347474      18.875393      1.4720818     -1.733754       17734.347    
    921000   0.97769711     0.0023323615   0.00095119604  20.173774      18.721894      1.4518802     -1.8229835      17759.506    
    922000   0.90539172     0.0023323615  -0.0040009316   20.099688      18.755181      1.3445067     -1.7485535      17545.239    
    923000   0.96524873     0.0023323615   0.0004895479   20.237553      18.804159      1.4333944     -1.6909705      17641.389    
    924000   0.91640786     0.0023323615  -0.0019583027   20.173762      18.812897      1.3608657     -1.5316686      17904.51     
    925000   0.88834659     0.0023323615   0.0011791677   19.945983      18.626788      1.3191947     -1.9445335      17832.642    
    926000   0.89967647     0.0023323615  -0.0015577095   19.84633       18.51031       1.3360196     -1.9712508      17762.91     
    927000   1.0409294      0.0023323615   0.00054355192  20.068522      18.522741      1.5457802     -1.9154738      17842.552    
    928000   1.0014126      0.0023323615   0.0039856734   20.185114      18.698016      1.4870977     -1.856759       17688.484    
    929000   1.0222508      0.0023323615   0.0019309601   20.205858      18.687815      1.5180424     -1.8035291      17783.94     
    930000   1.0023546      0.0023323615  -0.0018444378   20.185943      18.697446      1.4884966     -1.908521       17924.252    
    931000   0.96211194     0.0023323615   0.00025186483  20.405808      18.977071      1.4287362     -1.6195177      18051.059    
    932000   0.92177816     0.0023323615  -0.0022225181   20.137642      18.768802      1.3688406     -1.9362752      17835        
    933000   0.8979451      0.0023323615   0.0011307101   20.243676      18.910227      1.3334485     -1.5158958      17693.51     
    934000   1.1090282      0.0023323615  -0.00081330801  20.466787      18.81988       1.6469069     -1.750806       17816.742    
    935000   1.0009181      0.0023323615   0.0046583138   20.258437      18.772073      1.4863634     -1.7998329      17822.389    
    936000   0.92401607     0.0023323615   0.0030011742   20.288017      18.915853      1.3721639     -1.6782515      17761.149    
    937000   0.9042508      0.0023323615  -0.002675152    20.04963       18.706818      1.3428124     -1.7996764      17843.691    
    938000   0.97461617     0.0023323615   0.002048558    20.272649      18.825344      1.447305      -1.7044521      17673.354    
    939000   0.96449611     0.0023323615   0.0021117027   19.932046      18.499769      1.4322767     -1.9993971      17643.881    
    940000   1.0195354      0.0023323615   0.0006453505   20.126396      18.612386      1.51401       -1.8249396      17723.735    
    941000   1.0540148      0.0023323615  -0.0029768302   19.960035      18.394824      1.5652119     -1.9933614      17759.736    
    942000   1.0737303      0.0023323615  -9.9063762e-05  20.194738      18.600249      1.5944895     -1.8637277      17679.746    
    943000   1.0998915      0.0023323615   0.00021312303  20.226889      18.59355       1.6333389     -1.8486236      17706.741    
    944000   1.0733318      0.0023323615   0.00082358035  20.134442      18.540544      1.5938978     -1.9801966      17559.83     
    945000   1.0256102      0.0023323615   0.0013538301   20.316135      18.793104      1.5230311     -1.7334897      17702.112    
    946000   0.94080946     0.0023323615  -0.00030217646  19.992063      18.59496       1.3971021     -1.9165569      17932.788    
    947000   0.97469681     0.0023323615  -0.00097706846  20.276202      18.828777      1.4474248     -1.766506       17931.277    
    948000   1.0030907      0.0023323615   0.0021283446   19.988554      18.498965      1.4895897     -1.9489331      17710.244    
    949000   0.95924866     0.0023323615   1.0147443e-05  20.105607      18.681123      1.4244843     -1.7367546      17727.113    
    950000   1.0690299      0.0023323615   0.0027370781   20.266955      18.679445      1.5875094     -1.8011758      17816.818    
    951000   0.89367641     0.0023323615  -0.00033729442  19.975576      18.648467      1.3271095     -1.881851       17839.66     
    952000   0.80419454     0.0023323615   0.0027335088   19.857435      18.663206      1.1942289     -1.8101961      17761.383    
    953000   0.95565404     0.0023323615  -0.0044495479   20.163426      18.744279      1.4191462     -1.9112846      17782.641    
    954000   0.99833502     0.0023323615  -0.00084572038  20.157841      18.675314      1.4825275     -1.8402429      17727.585    
    955000   0.88128644     0.0023323615  -0.0048909608   20.317387      19.008676      1.3087104     -1.4921208      17764.683    
    956000   1.0412358      0.0023323615  -0.0028420889   20.569676      19.023441      1.5462351     -1.4552966      17783.699    
    957000   0.87026381     0.0023323615   0.0014696042   20.01093       18.718588      1.2923418     -1.8347459      17578.36     
    958000   1.0907252      0.0023323615  -0.0017927203   20.220378      18.600651      1.6197269     -1.8040567      17629.24     
    959000   0.94998172     0.0023323615   0.003561396    19.978051      18.567328      1.4107228     -1.9287867      17642.864    
    960000   0.98795856     0.0023323615   0.0029403989   20.075055      18.607936      1.4671185     -1.8765657      17630.283    
    961000   1.1378347      0.0023323615   0.0040959409   20.139974      18.450289      1.6896846     -1.9286757      17733.027    
    962000   1.007233       0.0023323615  -0.00013662568  20.18578       18.690039      1.4957411     -1.7810974      17801.54     
    963000   0.88044213     0.0023323615  -0.0026039295   19.872277      18.564821      1.3074566     -2.0307005      17726.779    
    964000   0.91539297     0.0023323615  -0.0010601804   20.097124      18.737766      1.3593586     -1.8379536      17780.145    
    965000   1.0447075      0.0023323615  -0.0009276357   20.132784      18.581393      1.5513906     -1.7429985      17948.519    
    966000   0.86335671     0.0023323615  -0.0031489591   19.853466      18.571381      1.2820847     -1.8770576      17942.843    
    967000   1.0132767      0.0023323615   0.00033829869  20.297178      18.792462      1.504716      -1.7282268      17916.713    
    968000   1.1907588      0.0023323615   0.001081947    20.399853      18.631576      1.7682768     -1.876621       17985.573    
    969000   1.0463235      0.0023323615   0.00088873043  20.229532      18.675742      1.5537904     -1.8015696      18006.533    
    970000   1.1289571      0.0023323615  -0.00034933983  20.486872      18.810371      1.6765013     -1.6548328      18045.083    
    971000   1.2991743      0.0023323615   0.0010454587   20.444837      18.515563      1.9292738     -1.9233593      17909.972    
    972000   0.91480272     0.0023323615   0.002018955    20.058388      18.699906      1.358482      -1.9063606      17995.875    
    973000   0.87829937     0.0023323615   0.0025174953   19.806551      18.502276      1.3042746     -2.009643       18026.768    
    974000   1.0780486      0.0023323615  -0.00031890934  20.150444      18.549542      1.6009021     -1.9475982      18081.637    
    975000   0.98486856     0.0023323615   0.0013133692   20.32618       18.86365       1.4625298     -1.7571184      17849.154    
    976000   0.98737157     0.0023323615  -0.0019948454   20.152571      18.686324      1.4662468     -1.8887683      17802.042    
    977000   0.90130217     0.0023323615   0.00028480941  20.232403      18.893969      1.3384337     -1.6817704      17760.451    
    978000   1.1215248      0.0023323615  -0.0017318221   20.1838        18.518336      1.6654644     -2.1227076      17840.192    
    979000   1.0674194      0.0023323615   0.00070175666  20.108445      18.523327      1.5851178     -2.041374       17805.205    
    980000   0.86592023     0.0023323615  -0.0045243216   19.854825      18.568934      1.2858915     -1.8469927      17778.378    
    981000   1.0619106      0.0023323615   0.0024064019   20.24878       18.671842      1.5769372     -1.7198114      18003.298    
    982000   1.1058054      0.0023323615   0.0018952324   20.399669      18.757548      1.642121      -1.6834135      17877.181    
    983000   1.0038182      0.0023323615   0.0043701679   20.089134      18.598463      1.4906701     -1.9919107      17881.854    
    984000   0.98859126     0.0023323615   0.0045812938   19.910085      18.442027      1.468058      -1.9865637      18094.241    
    985000   0.99128741     0.0023323615   0.00074015955  20.258983      18.786921      1.4720618     -1.7549175      18115.179    
    986000   1.0750955      0.0023323615   0.00065625274  20.1021        18.505583      1.5965169     -1.9603933      18000.402    
    987000   1.063664       0.0023323615  -0.0052797362   19.94285       18.363309      1.579541      -2.1905787      18080.186    
    988000   1.0415896      0.0023323615   0.00029318347  20.186126      18.639366      1.5467606     -1.8076556      18038.727    
    989000   0.97395917     0.0023323615  -0.0039806576   20.54202       19.09569       1.4463294     -1.4869579      18083.671    
    990000   0.98230123     0.0023323615   0.0037132376   20.306512      18.847795      1.4587173     -1.7026997      17990.585    
    991000   0.95742734     0.0023323615  -0.0030990127   19.870547      18.448767      1.4217796     -2.0462082      18035.484    
    992000   0.89574442     0.0023323615   0.00083365831  20.055063      18.724883      1.3301805     -1.6949339      17882.879    
    993000   0.96542528     0.0023323615  -0.00035736271  19.974053      18.540396      1.4336565     -1.951781       17870.002    
    994000   0.90926425     0.0023323615  -0.0024094387   19.995764      18.645506      1.3502574     -1.8438915      17950.791    
    995000   0.95305551     0.0023323615   0.0016761572   19.850181      18.434893      1.4152874     -1.9878316      18161.52     
    996000   0.9053576      0.0023323615   0.00090805902  20.21837       18.873914      1.344456      -1.7787295      17969.047    
    997000   1.0663315      0.0023323615  -0.0010087305   20.197886      18.614383      1.5835023     -1.7821127      17997.517    
    998000   1.0463788      0.0023323615   0.00012462922  20.099053      18.545181      1.5538725     -1.9011829      18011.063    
    999000   0.99345011     0.0023323615   0.003080118    19.77901       18.303737      1.4752734     -2.2062161      18005.367    
   1000000   0.94681374     0.0023323615  -0.0012281719   20.170198      18.76418       1.4060184     -1.7216063      18042.37     
Loop time of 55.558 on 1 procs for 1000000 steps with 100 atoms

Performance: 7775662.852 tau/day, 17999.220 timesteps/s
99.3% CPU use with 1 MPI tasks x 1 OpenMP threads

MPI task timing breakdown:
Section |  min time  |  avg time  |  max time  |%varavg| %total
---------------------------------------------------------------
Pair    | 46.578     | 46.578     | 46.578     |   0.0 | 83.84
Bond    | 1.2686     | 1.2686     | 1.2686     |   0.0 |  2.28
Neigh   | 3.7899     | 3.7899     | 3.7899     |   0.0 |  6.82
Comm    | 1.3786     | 1.3786     | 1.3786     |   0.0 |  2.48
Output  | 0.21921    | 0.21921    | 0.21921    |   0.0 |  0.39
Modify  | 1.9622     | 1.9622     | 1.9622     |   0.0 |  3.53
Other   |            | 0.3609     |            |       |  0.65

Nlocal:            100 ave         100 max         100 min
Histogram: 1 0 0 0 0 0 0 0 0 0
Nghost:            308 ave         308 max         308 min
Histogram: 1 0 0 0 0 0 0 0 0 0
Neighs:           4851 ave        4851 max        4851 min
Histogram: 1 0 0 0 0 0 0 0 0 0

Total # of neighbors = 4851
Ave neighs/atom = 48.51
Ave special neighs/atom = 1.98
Neighbor list builds = 97774
Dangerous builds = 79127

write_data      ${outputfile_assembled} nofix nocoeff
write_data      7_assembled.data nofix nocoeff
System init for write_data ...
Generated 0 of 6 mixed pair_coeff terms from geometric mixing rule

Total wall time: 0:00:56
