LAMMPS (23 Jun 2022 - Update 1)
OMP_NUM_THREADS environment is not set. Defaulting to 1 thread. (src/comm.cpp:98)
  using 1 OpenMP thread(s) per MPI task


variable        runtime equal 1000000
variable		subsample_rate equal 1000

variable		outputfile_created string '3_created.data'
variable		outputfile_relaxed string '5_relaxed.data'
variable		outputfile_selfasb string '6_a_self_assemble.lammpstrj'
variable		outputfile_trajlin string '6_b_trajlin.data'
variable		outputfile_assembled string '7_assembled.data'

units           lj
atom_style      full
dimension       3
boundary        p p p
timestep        0.005

read_data       ${outputfile_created}
read_data       3_created.data
Reading data file ...
  orthogonal box = (0 0 0) to (35 35 35)
  1 by 1 by 1 MPI processor grid
  reading atoms ...
  100 atoms
  reading velocities ...
  100 velocities
  scanning bonds ...
  1 = max bonds/atom
  reading bonds ...
  99 bonds
Finding 1-2 1-3 1-4 neighbors ...
  special bond factors lj:    0        0        0       
  special bond factors coul:  0        0        0       
     2 = max # of 1-2 neighbors
     2 = max # of 1-3 neighbors
     4 = max # of 1-4 neighbors
     6 = max # of special neighbors
  special bonds CPU = 0.000 seconds
  read_data CPU = 0.006 seconds

bond_style      fene
bond_coeff      * 30.0 1.5 1.0 1.0
special_bonds   fene
Finding 1-2 1-3 1-4 neighbors ...
  special bond factors lj:    0        1        1       
  special bond factors coul:  0        1        1       
     2 = max # of 1-2 neighbors
     6 = max # of special neighbors
  special bonds CPU = 0.000 seconds

variable        Temp equal 1.0
variable        velSeed equal 926458

velocity        all create ${Temp} ${velSeed}
velocity        all create 1 ${velSeed}
velocity        all create 1 926458

### Output
thermo_style    custom step temp density press etotal pe ke epair spcpu
thermo          1000

###########################################################################
# Soft relaxation (to remove overlaps of particles)
######################################################################

pair_style      soft 1.0
pair_coeff      * * 0.0
variable        prefactor equal ramp(0,300)
fix             rampSoft all adapt 1 pair soft a * * v_prefactor

minimize        0.0 1.0e-8 1000 100000
WARNING: Using 'neigh_modify every 1 delay 0 check yes' setting during minimization (src/min.cpp:187)
Generated 0 of 6 mixed pair_coeff terms from geometric mixing rule
Neighbor list info ...
  update every 1 steps, delay 0 steps, check yes
  max neighbors/atom: 2000, page size: 100000
  master list distance cutoff = 1.3
  ghost atom cutoff = 1.3
  binsize = 0.65, bins = 54 54 54
  1 neighbor lists, perpetual/occasional/extra = 1 0 0
  (1) pair soft, perpetual
      attributes: half, newton on
      pair build: half/bin/newton
      stencil: half/bin/3d
      bin: standard
WARNING: Communication cutoff 1.3 is shorter than a bond length based estimate of 1.7550000000000001. This may lead to errors. (src/comm.cpp:727)
Per MPI rank memory allocation (min/avg/max) = 8.346 | 8.346 | 8.346 Mbytes
   Step          Temp         Density         Press          TotEng         PotEng         KinEng         E_pair         S/CPU     
         0   1              0.0023323615  -0.0039617958   21.524174      20.039174      1.485          0              0            
       362   1              0.0023323615   0.0023090379   21.485548      20.000548      1.485          0              66999.852    
Loop time of 0.00540537 on 1 procs for 362 steps with 100 atoms

99.0% CPU use with 1 MPI tasks x 1 OpenMP threads

Minimization stats:
  Stopping criterion = force tolerance
  Energy initial, next-to-last, final = 
      20.0391741078675   20.0005480767337   20.0005480767337
  Force two-norm initial, final = 11.878422 7.9509778e-09
  Force max component initial, final = 6.6117807 1.3572772e-09
  Final line search alpha, max atom move = 1 1.3572772e-09
  Iterations, force evaluations = 362 738

MPI task timing breakdown:
Section |  min time  |  avg time  |  max time  |%varavg| %total
---------------------------------------------------------------
Pair    | 0.00021467 | 0.00021467 | 0.00021467 |   0.0 |  3.97
Bond    | 0.0023233  | 0.0023233  | 0.0023233  |   0.0 | 42.98
Neigh   | 0.001665   | 0.001665   | 0.001665   |   0.0 | 30.80
Comm    | 0.00018911 | 0.00018911 | 0.00018911 |   0.0 |  3.50
Output  | 0          | 0          | 0          |   0.0 |  0.00
Modify  | 0          | 0          | 0          |   0.0 |  0.00
Other   |            | 0.001013   |            |       | 18.75

Nlocal:            100 ave         100 max         100 min
Histogram: 1 0 0 0 0 0 0 0 0 0
Nghost:             20 ave          20 max          20 min
Histogram: 1 0 0 0 0 0 0 0 0 0
Neighs:              0 ave           0 max           0 min
Histogram: 1 0 0 0 0 0 0 0 0 0

Total # of neighbors = 0
Ave neighs/atom = 0
Ave special neighs/atom = 1.98
Neighbor list builds = 17
Dangerous builds = 0

fix             nvtSoft all nvt temp ${Temp} ${Temp} 0.5
fix             nvtSoft all nvt temp 1 ${Temp} 0.5
fix             nvtSoft all nvt temp 1 1 0.5
run             100000
Generated 0 of 6 mixed pair_coeff terms from geometric mixing rule
WARNING: Communication cutoff 1.3 is shorter than a bond length based estimate of 1.7550000000000001. This may lead to errors. (src/comm.cpp:727)
Per MPI rank memory allocation (min/avg/max) = 7.221 | 7.221 | 7.221 Mbytes
   Step          Temp         Density         Press          TotEng         PotEng         KinEng         E_pair         S/CPU     
       362   1              0.0023323615   0.0023090379   21.485548      20.000548      1.485          0              0            
      1000   0.90989032     0.0023323615  -0.0021940042   21.776974      20.425787      1.3511871      0.00036425437  71285.609    
      2000   0.86546688     0.0023323615   0.0034714157   21.677128      20.39191       1.2852183      0.0025814786   74034.989    
      3000   0.98199538     0.0023323615   0.0028144228   21.866132      20.407869      1.4582631      0.0011756043   72894.145    
      4000   1.004495       0.0023323615  -0.0014058211   21.945624      20.453949      1.4916751      0.011986179    74196.68     
      5000   1.1222705      0.0023323615   0.0044495116   21.986385      20.319813      1.6665718      0.0050317639   72443.594    
      6000   1.0538243      0.0023323615   0.0023957538   21.985713      20.420784      1.564929       0.012100514    74951.181    
      7000   1.0210598      0.0023323615  -0.00038820026  21.904665      20.388391      1.5162738      0              77249.086    
      8000   0.94819751     0.0023323615   0.0024943091   21.747889      20.339816      1.4080733      0              77233.073    
      9000   0.92364502     0.0023323615   0.0020053029   21.724166      20.352554      1.3716129      1.7780894e-05  75915.382    
     10000   0.86685188     0.0023323615   0.00078277366  21.644879      20.357604      1.287275       0.0098636418   76086.384    
     11000   1.0057103      0.0023323615   0.00010113276  21.8558        20.362321      1.4934798      0.020705341    76324.167    
     12000   0.97901664     0.0023323615  -0.0026996968   21.871206      20.417366      1.4538397      0.0052928539   75935.189    
     13000   0.97718436     0.0023323615  -6.1641422e-06  21.963706      20.512587      1.4511188      0.025022446    75524.771    
     14000   1.0530014      0.0023323615  -0.0009993112   21.947994      20.384287      1.5637071      0.0020860456   75293.012    
     15000   0.99094527     0.0023323615   0.0011068478   21.895146      20.423592      1.4715537      0.0015091113   76384.274    
     16000   0.91285091     0.0023323615  -0.00025424173  21.87524       20.519657      1.3555836      0.0047853639   75935.824    
     17000   0.82806978     0.0023323615  -0.00054698156  21.701984      20.472301      1.2296836      0              76149.828    
     18000   1.043278       0.0023323615  -6.6143919e-05  22.003299      20.454031      1.5492679      0.0034319132   76895.412    
     19000   1.0879249      0.0023323615  -0.0017804642   21.998985      20.383416      1.6155685      0.015376175    75585.453    
     20000   1.1144506      0.0023323615   0.0025198298   22.190904      20.535944      1.6549592      0              76710.848    
     21000   1.0427751      0.0023323615   0.0011345349   22.099492      20.550971      1.548521       0.00040047813  76857.334    
     22000   1.0586695      0.0023323615   0.0017882747   22.05673       20.484606      1.5721242      0              76368.845    
     23000   1.0058426      0.0023323615  -0.0055245362   21.954628      20.460951      1.4936763      0.0027619031   75687.359    
     24000   0.98273442     0.0023323615   0.0015147357   21.862067      20.402707      1.4593606      0              75947.15     
     25000   0.95835343     0.0023323615   0.0017808774   21.937761      20.514606      1.4231548      0.00020839942  75412.359    
     26000   0.93993778     0.0023323615  -0.0021777292   21.884849      20.489042      1.3958076      0.0088889834   76089.574    
     27000   0.9308188      0.0023323615  -0.00011239942  21.842252      20.459986      1.3822659      0.021612409    75203.265    
     28000   1.0149581      0.0023323615   0.0041996387   21.906846      20.399633      1.5072129      0.0064059022   75972.064    
     29000   0.92841138     0.0023323615  -2.5398808e-05  21.987185      20.608494      1.3786909      0.0046112484   75799.036    
     30000   1.021043       0.0023323615   0.001589158    22.097958      20.581709      1.5162489      0.016799508    73811.393    
     31000   1.0465985      0.0023323615  -0.0021744286   22.037917      20.483718      1.5541987      0.0057879149   76361.777    
     32000   0.98907108     0.0023323615  -0.0015558606   22.044089      20.575318      1.4687705      0.009448173    75874.232    
     33000   1.0918536      0.0023323615  -0.0025643847   22.039275      20.417873      1.6214025      0              74830.595    
     34000   0.99801543     0.0023323615   0.0016279766   21.932339      20.450286      1.4820529      0.017384617    77123.146    
     35000   1.0352271      0.0023323615  -0.0052971711   22.076004      20.538692      1.5373122      0.00010473809  76022.751    
     36000   1.1141579      0.0023323615  -0.00093279925  22.222491      20.567966      1.6545245      0.00033678641  77140.732    
     37000   1.0369415      0.0023323615   0.00013065175  22.217841      20.677983      1.5398581      0.013788831    76301.123    
     38000   1.0515596      0.0023323615   0.0021717558   22.070766      20.5092        1.561566       0.0067894678   76660.885    
     39000   1.0238495      0.0023323615   0.00026414509  22.040141      20.519725      1.5204165      0.00044464649  75741.75     
     40000   1.0749111      0.0023323615  -0.0026849368   22.039327      20.443084      1.596243       0.012651334    74326.133    
     41000   0.99070886     0.0023323615  -0.0030385564   22.03241       20.561207      1.4712027      0.00092855646  77452.477    
     42000   0.95315224     0.0023323615   0.0019788197   21.965263      20.549832      1.4154311      0.020233689    75845.407    
     43000   1.0644183      0.0023323615  -0.0011168725   22.287172      20.706511      1.5806611      0.039694129    75910.357    
     44000   1.0253747      0.0023323615  -0.006676522    22.066233      20.543552      1.5226814      0              74646.803    
     45000   0.94179556     0.0023323615  -0.0047206018   21.970644      20.572077      1.3985664      0.019869988    75036.824    
     46000   1.0083495      0.0023323615  -0.0017646918   21.972114      20.474715      1.497399       0.00026040605  75372.61     
     47000   0.98767959     0.0023323615  -0.00080218158  22.091674      20.62497       1.4667042      0.024266258    75317.556    
     48000   1.1473449      0.0023323615  -0.0025885687   22.080512      20.376705      1.7038072      0.00065962995  75523.288    
     49000   1.0679312      0.0023323615   0.0017688272   21.970482      20.384604      1.5858779      0.014142422    76710.135    
     50000   0.9581935      0.0023323615   0.0014398836   21.955202      20.532284      1.4229173      0.0055011948   76509.865    
     51000   1.0215759      0.0023323615  -0.00093292688  21.934681      20.41764       1.5170402      0              76222.463    
     52000   0.98079591     0.0023323615   0.0040701936   21.977374      20.520892      1.4564819      0.0020862422   76901.16     
     53000   1.0090927      0.0023323615   0.0013324753   22.095438      20.596935      1.4985027      0              76311.912    
     54000   0.97519627     0.0023323615   0.0013260734   22.070151      20.621984      1.4481665      0.026885444    77057.893    
     55000   1.1805087      0.0023323615  -0.001586238    22.424088      20.671033      1.7530554      0.024690954    76644.051    
     56000   0.98387121     0.0023323615   0.0037155145   22.104425      20.643376      1.4610487      0.01435493     76166.567    
     57000   1.0723812      0.0023323615  -0.0037916262   22.122726      20.53024       1.592486       0.013635549    76279.193    
     58000   1.0152349      0.0023323615   0.00021908047  22.082827      20.575203      1.5076238      0.00077375639  76479.677    
     59000   1.1424502      0.0023323615  -0.0052108657   22.30072       20.604182      1.6965385      0.013308184    77313.474    
     60000   1.0359703      0.0023323615  -0.00097887545  22.188218      20.649802      1.538416       0.00011346294  75604.174    
     61000   1.1646839      0.0023323615  -0.002085017    22.239945      20.51039       1.7295556      0.012918477    77953.277    
     62000   1.101836       0.0023323615   0.0010338878   22.171386      20.53516       1.6362265      0.001396566    76874.439    
     63000   0.96616435     0.0023323615   0.00097550571  21.903821      20.469067      1.4347541      0.013027663    78095.086    
     64000   1.0068907      0.0023323615  -0.0020278726   22.061652      20.566419      1.4952327      0.013750276    76401.344    
     65000   0.98723233     0.0023323615   0.0022441476   22.031073      20.565033      1.46604        0.0066686189   77015.97     
     66000   1.0273881      0.0023323615  -0.0003515278   22.183579      20.657908      1.5256713      0              75282.396    
     67000   0.96528212     0.0023323615  -0.00014822656  21.9396        20.506156      1.4334439      0.010365557    77068.363    
     68000   1.069702       0.0023323615   9.4754668e-05  22.081119      20.492611      1.5885075      0.00049153926  74447.874    
     69000   1.1229502      0.0023323615   0.0011504079   22.200329      20.532748      1.6675811      0.0068454249   77157.666    
     70000   1.0062775      0.0023323615  -0.00085311964  22.094021      20.599699      1.4943221      0.013222355    75602.739    
     71000   1.0906935      0.0023323615   0.00015260357  22.145362      20.525682      1.6196798      0.018338513    76111.274    
     72000   1.010401       0.0023323615  -6.0487182e-06  22.154105      20.653659      1.5004455      0.0013793953   74785.623    
     73000   1.1177599      0.0023323615  -0.0034084797   22.254435      20.594562      1.6598735      0.00011231735  77647.335    
     74000   0.9768019      0.0023323615   0.00016143893  22.07312       20.622569      1.4505508      0.0084515956   75942.127    
     75000   1.1360996      0.0023323615   0.002159116    22.161595      20.474487      1.6871079      0.0089909162   76381.053    
     76000   0.97379329     0.0023323615  -0.00068458621  21.988928      20.542845      1.446083       0              75691.896    
     77000   0.94876793     0.0023323615  -0.0016073976   21.923496      20.514575      1.4089204      0.017745108    75961.538    
     78000   0.83947996     0.0023323615  -0.00062768559  21.726727      20.480099      1.2466277      0.0054510099   76434.519    
     79000   1.0090614      0.0023323615  -0.00080262643  22.068192      20.569736      1.4984562      0.00023011166  77097.477    
     80000   1.1217643      0.0023323615  -0.0038177864   22.367902      20.702082      1.66582        0.032902439    76500.775    
     81000   1.0240158      0.0023323615   0.00023547123  22.031597      20.510933      1.5206635      0.0068767308   75963.391    
     82000   1.003236       0.0023323615  -0.0022802982   21.894199      20.404393      1.4898055      0.019136282    74943.805    
     83000   1.0554159      0.0023323615   0.004011718    22.104562      20.537269      1.5672927      0.0080869707   74596.704    
     84000   0.83527346     0.0023323615  -0.0034122221   21.874648      20.634267      1.2403811      0.0030083664   75838.896    
     85000   1.036002       0.0023323615   0.0013573923   21.962923      20.42446       1.5384629      0.015709144    75894.312    
     86000   0.9432002      0.0023323615  -0.0032183248   21.913588      20.512936      1.4006523      0.013730309    76552.639    
     87000   0.95566008     0.0023323615  -0.00049614223  21.91653       20.497375      1.4191552      0.0035862035   75739.22     
     88000   0.93373351     0.0023323615  -0.00097093893  21.870485      20.483891      1.3865943      0.0018212145   75472.063    
     89000   0.9684944      0.0023323615  -0.00047342045  21.973429      20.535215      1.4382142      0.00087524744  75732.269    
     90000   0.98293324     0.0023323615  -0.0032204602   22.050919      20.591263      1.4596559      0.015353933    76986.212    
     91000   1.0832827      0.0023323615   0.0048517083   22.11977       20.511095      1.6086749      0.0052867789   78017.683    
     92000   0.85899662     0.0023323615  -0.0013049519   21.765697      20.490087      1.27561        0.0024124001   76912.652    
     93000   0.96176266     0.0023323615  -4.4223672e-05  21.874222      20.446004      1.4282176      0.0045653365   77588.608    
     94000   0.96019503     0.0023323615   0.00024459347  21.944954      20.519064      1.4258896      3.8053462e-05  76969.288    
     95000   0.94702149     0.0023323615  -0.0033658915   21.86315       20.456823      1.4063269      0              77262.67     
     96000   0.91119348     0.0023323615  -0.0013197298   21.825018      20.471896      1.3531223      0.00043282989  76297.333    
     97000   1.0016687      0.0023323615  -0.0019514304   22.013024      20.525546      1.487478       0.0048369955   75830.994    
     98000   1.02143        0.0023323615  -0.0057874974   22.177965      20.661142      1.5168235      0              74746.482    
     99000   1.032786       0.0023323615   0.0018228259   21.975336      20.441649      1.5336871      7.1595851e-05  77840.257    
    100000   1.0594928      0.0023323615   0.0036169719   22.011024      20.437677      1.5733468      0.00032948157  76029.878    
    100362   1.1904942      0.0023323615  -0.00089755607  22.316856      20.548972      1.7678839      0.00063845255  75672.708    
Loop time of 1.31552 on 1 procs for 100000 steps with 100 atoms

Performance: 32838617.933 tau/day, 76015.319 timesteps/s
99.3% CPU use with 1 MPI tasks x 1 OpenMP threads

MPI task timing breakdown:
Section |  min time  |  avg time  |  max time  |%varavg| %total
---------------------------------------------------------------
Pair    | 0.049723   | 0.049723   | 0.049723   |   0.0 |  3.78
Bond    | 0.1263     | 0.1263     | 0.1263     |   0.0 |  9.60
Neigh   | 0.80453    | 0.80453    | 0.80453    |   0.0 | 61.16
Comm    | 0.05562    | 0.05562    | 0.05562    |   0.0 |  4.23
Output  | 0.0010422  | 0.0010422  | 0.0010422  |   0.0 |  0.08
Modify  | 0.2447     | 0.2447     | 0.2447     |   0.0 | 18.60
Other   |            | 0.03361    |            |       |  2.55

Nlocal:            100 ave         100 max         100 min
Histogram: 1 0 0 0 0 0 0 0 0 0
Nghost:             60 ave          60 max          60 min
Histogram: 1 0 0 0 0 0 0 0 0 0
Neighs:             36 ave          36 max          36 min
Histogram: 1 0 0 0 0 0 0 0 0 0

Total # of neighbors = 36
Ave neighs/atom = 0.36
Ave special neighs/atom = 1.98
Neighbor list builds = 9821
Dangerous builds = 8265
unfix           nvtSoft
unfix           rampSoft
reset_timestep  0

write_data      ${outputfile_relaxed}
write_data      5_relaxed.data
System init for write_data ...
Generated 0 of 6 mixed pair_coeff terms from geometric mixing rule
WARNING: Communication cutoff 1.3 is shorter than a bond length based estimate of 1.7550000000000001. This may lead to errors. (src/comm.cpp:727)
WARNING: Not all mixed pair coeffs generated from mixing. Use write_data with 'pair ij' option to store all pair coeffs. (src/write_data.cpp:309)

###########################################################################
# Full LJ with Coulomb
######################################################################

# Cutoffs and parameters:
# - Values: Marcel Verkade's Bachelor Thesis
# - Mapping to atom groups: Patrick Onck's paper
# - 1: aliphatic, 2: aromatic, 3: anion, 4: cation
# pair_style	lj/cut/coul/cut <lj_cut_global> <coul_cut_global>
# pair_coeff	<type_1>  <type_2>  <eps>  <sigma>  <r_cut_lj>  <r_cut_coul>

# Problem: Onck's model is much more complex, and Marcel has no sigma reported
# Using sigma=1 randomly

variable		glob_ljeps equal 1.0
variable		glob_ljsig 	equal 1.0
variable		glob_coulcut equal 10.0
variable		att_ljcut equal 2.50
variable		rep_ljcut equal 1.12

pair_style		lj/cut/coul/cut 						${att_ljcut} 	${glob_coulcut}
pair_style		lj/cut/coul/cut 						2.5 	${glob_coulcut}
pair_style		lj/cut/coul/cut 						2.5 	10
pair_coeff		1 1 	${glob_ljeps} 	${glob_ljsig}	${att_ljcut} 	${glob_coulcut}
pair_coeff		1 1 	1 	${glob_ljsig}	${att_ljcut} 	${glob_coulcut}
pair_coeff		1 1 	1 	1	${att_ljcut} 	${glob_coulcut}
pair_coeff		1 1 	1 	1	2.5 	${glob_coulcut}
pair_coeff		1 1 	1 	1	2.5 	10
pair_coeff		1 2 	${glob_ljeps} 	${glob_ljsig}	${att_ljcut} 	${glob_coulcut}
pair_coeff		1 2 	1 	${glob_ljsig}	${att_ljcut} 	${glob_coulcut}
pair_coeff		1 2 	1 	1	${att_ljcut} 	${glob_coulcut}
pair_coeff		1 2 	1 	1	2.5 	${glob_coulcut}
pair_coeff		1 2 	1 	1	2.5 	10
pair_coeff		1 3 	${glob_ljeps} 	${glob_ljsig}	${rep_ljcut} 	${glob_coulcut}
pair_coeff		1 3 	1 	${glob_ljsig}	${rep_ljcut} 	${glob_coulcut}
pair_coeff		1 3 	1 	1	${rep_ljcut} 	${glob_coulcut}
pair_coeff		1 3 	1 	1	1.12 	${glob_coulcut}
pair_coeff		1 3 	1 	1	1.12 	10
pair_coeff		1 4 	${glob_ljeps} 	${glob_ljsig}	${rep_ljcut} 	${glob_coulcut}
pair_coeff		1 4 	1 	${glob_ljsig}	${rep_ljcut} 	${glob_coulcut}
pair_coeff		1 4 	1 	1	${rep_ljcut} 	${glob_coulcut}
pair_coeff		1 4 	1 	1	1.12 	${glob_coulcut}
pair_coeff		1 4 	1 	1	1.12 	10
pair_coeff		2 2 	${glob_ljeps} 	${glob_ljsig}	${att_ljcut} 	${glob_coulcut}
pair_coeff		2 2 	1 	${glob_ljsig}	${att_ljcut} 	${glob_coulcut}
pair_coeff		2 2 	1 	1	${att_ljcut} 	${glob_coulcut}
pair_coeff		2 2 	1 	1	2.5 	${glob_coulcut}
pair_coeff		2 2 	1 	1	2.5 	10
pair_coeff		2 3 	${glob_ljeps} 	${glob_ljsig}	${rep_ljcut} 	${glob_coulcut}
pair_coeff		2 3 	1 	${glob_ljsig}	${rep_ljcut} 	${glob_coulcut}
pair_coeff		2 3 	1 	1	${rep_ljcut} 	${glob_coulcut}
pair_coeff		2 3 	1 	1	1.12 	${glob_coulcut}
pair_coeff		2 3 	1 	1	1.12 	10
pair_coeff		2 4 	${glob_ljeps} 	${glob_ljsig}	${att_ljcut} 	${glob_coulcut}
pair_coeff		2 4 	1 	${glob_ljsig}	${att_ljcut} 	${glob_coulcut}
pair_coeff		2 4 	1 	1	${att_ljcut} 	${glob_coulcut}
pair_coeff		2 4 	1 	1	2.5 	${glob_coulcut}
pair_coeff		2 4 	1 	1	2.5 	10
pair_coeff		3 3 	${glob_ljeps} 	${glob_ljsig}	${rep_ljcut} 	${glob_coulcut}
pair_coeff		3 3 	1 	${glob_ljsig}	${rep_ljcut} 	${glob_coulcut}
pair_coeff		3 3 	1 	1	${rep_ljcut} 	${glob_coulcut}
pair_coeff		3 3 	1 	1	1.12 	${glob_coulcut}
pair_coeff		3 3 	1 	1	1.12 	10
pair_coeff		3 4 	${glob_ljeps} 	${glob_ljsig}	${att_ljcut} 	${glob_coulcut}
pair_coeff		3 4 	1 	${glob_ljsig}	${att_ljcut} 	${glob_coulcut}
pair_coeff		3 4 	1 	1	${att_ljcut} 	${glob_coulcut}
pair_coeff		3 4 	1 	1	2.5 	${glob_coulcut}
pair_coeff		3 4 	1 	1	2.5 	10
pair_coeff		4 4 	${glob_ljeps} 	${glob_ljsig}	${rep_ljcut} 	${glob_coulcut}
pair_coeff		4 4 	1 	${glob_ljsig}	${rep_ljcut} 	${glob_coulcut}
pair_coeff		4 4 	1 	1	${rep_ljcut} 	${glob_coulcut}
pair_coeff		4 4 	1 	1	1.12 	${glob_coulcut}
pair_coeff		4 4 	1 	1	1.12 	10


fix             noDriftRot 	all momentum 10 linear 1 1 1 angular
fix             nvt1 		all nvt temp ${Temp} ${Temp} 0.5
fix             nvt1 		all nvt temp 1 ${Temp} 0.5
fix             nvt1 		all nvt temp 1 1 0.5

# dump          assemble 	all custom 1000 				${outputfile_selfasb} id type xu yu zu vx vy vz
dump            lindump 	all custom ${subsample_rate} 	${outputfile_trajlin} id type xu yu zu vx vy vz
dump            lindump 	all custom 1000 	${outputfile_trajlin} id type xu yu zu vx vy vz
dump            lindump 	all custom 1000 	6_b_trajlin.data id type xu yu zu vx vy vz

run             ${runtime}
run             1000000
Generated 0 of 6 mixed pair_coeff terms from geometric mixing rule
Neighbor list info ...
  update every 1 steps, delay 10 steps, check yes
  max neighbors/atom: 2000, page size: 100000
  master list distance cutoff = 10.3
  ghost atom cutoff = 10.3
  binsize = 5.15, bins = 7 7 7
  1 neighbor lists, perpetual/occasional/extra = 1 0 0
  (1) pair lj/cut/coul/cut, perpetual
      attributes: half, newton on
      pair build: half/bin/newton
      stencil: half/bin/3d
      bin: standard
Per MPI rank memory allocation (min/avg/max) = 7.712 | 7.712 | 7.712 Mbytes
   Step          Temp         Density         Press          TotEng         PotEng         KinEng         E_pair         S/CPU     
         0   1.1904942      0.0023323615  -0.0013103095   21.926582      20.158698      1.7678839     -0.38963587     0            
      1000   0.93318829     0.0023323615  -0.0010897418   21.206584      19.820799      1.3857846     -0.68029184     33552.945    
      2000   0.90923443     0.0023323615  -0.0015681519   21.153145      19.802931      1.3502131     -0.74914621     31214.396    
      3000   0.83109933     0.0023323615   0.0051469171   20.749321      19.515138      1.2341825     -0.87545388     27199.556    
      4000   1.1086453      0.0023323615   0.0038703096   20.990602      19.344264      1.6463382     -1.109784       21277.012    
      5000   1.1367164      0.0023323615   0.00054536583  21.04685       19.358826      1.6880238     -1.1319874      18914.869    
      6000   0.89344583     0.0023323615  -0.0015489495   20.892923      19.566156      1.3267671     -0.92365332     18526.752    
      7000   0.96162797     0.0023323615   0.0011723923   21.070403      19.642386      1.4280175     -0.81100406     18825.017    
      8000   0.96116439     0.0023323615  -0.003345048    20.947799      19.52047       1.4273291     -0.94988353     19139.478    
      9000   0.92104573     0.0023323615   0.0030332423   21.013589      19.645836      1.3677529     -0.81364017     19813.022    
     10000   1.0890558      0.0023323615   0.0016590055   21.351243      19.733995      1.6172479     -0.93176993     20353.741    
     11000   1.0012868      0.0023323615   0.001250241    20.853517      19.366606      1.4869109     -1.1288754      19742.419    
     12000   0.93215198     0.0023323615   0.0028248066   20.817675      19.433429      1.3842457     -1.0798365      19273.404    
     13000   1.1585115      0.0023323615  -0.0020309283   21.044643      19.324254      1.7203896     -1.2158774      18774.156    
     14000   0.98255971     0.0023323615   0.00055435848  20.756292      19.297191      1.4591012     -1.2354899      18840.841    
     15000   1.0678652      0.0023323615   0.0029729729   20.826572      19.240792      1.5857799     -1.2242624      18722.326    
     16000   1.0660835      0.0023323615  -0.0028083472   20.772179      19.189045      1.583134      -1.2416024      18708.703    
     17000   1.0358064      0.0023323615  -0.0039247378   20.935202      19.39703       1.5381724     -1.2344588      18675.138    
     18000   0.99092181     0.0023323615  -0.0046042093   20.787238      19.315719      1.4715189     -1.1618551      18735.818    
     19000   0.95504793     0.0023323615   0.0018819562   20.839205      19.420959      1.4182462     -1.1788901      18714.874    
     20000   0.99852556     0.0023323615  -0.00223193     20.822361      19.339551      1.4828105     -1.1359388      18740.676    
     21000   1.0728643      0.0023323615   0.00096967858  20.813559      19.220355      1.5932035     -1.3676081      18928.066    
     22000   0.96504766     0.0023323615  -0.0022707947   20.651974      19.218878      1.4330958     -1.3822805      18784.438    
     23000   0.90856257     0.0023323615  -0.00029239039  20.654672      19.305456      1.3492154     -1.1906319      18650.599    
     24000   0.87121005     0.0023323615   0.00060568439  20.585906      19.292159      1.2937469     -1.2446977      18749.586    
     25000   0.95289716     0.0023323615   0.0030225662   20.442707      19.027655      1.4150523     -1.3346819      18615.026    
     26000   0.88477134     0.0023323615  -0.0027982772   20.767157      19.453271      1.3138854     -1.1233729      18694.928    
     27000   0.97758451     0.0023323615   0.0020256333   20.850707      19.398994      1.451713      -1.0984522      18639.377    
     28000   1.0211278      0.0023323615  -0.0038487095   20.619676      19.103302      1.5163748     -1.4283713      18557.35     
     29000   0.89407231     0.0023323615  -0.00024740381  20.790056      19.462359      1.3276974     -1.0766167      19021.324    
     30000   1.0842033      0.0023323615  -9.7041936e-05  21.025829      19.415787      1.6100419     -1.1060495      20279.152    
     31000   1.0471742      0.0023323615   0.0025384746   21.130451      19.575397      1.5550537     -0.9704074      21191.723    
     32000   0.94914318     0.0023323615   0.00038526021  21.053114      19.643636      1.4094776     -0.9098585      20331.995    
     33000   0.92482253     0.0023323615   0.00043268183  20.804514      19.431152      1.3733615     -1.1365966      19573.942    
     34000   0.99182689     0.0023323615   4.2734173e-05  21.074446      19.601583      1.4728629     -0.98813497     18935.783    
     35000   1.1288053      0.0023323615  -0.0016357695   21.049597      19.373321      1.6762759     -1.1855782      18750.061    
     36000   0.94416833     0.0023323615   0.0033961305   20.897857      19.495767      1.40209       -1.1041798      18646.199    
     37000   0.89984788     0.0023323615  -0.0039630488   20.907239      19.570965      1.3362741     -1.0654327      18638.928    
     38000   1.0281971      0.0023323615  -0.0024568015   20.667059      19.140186      1.5268727     -1.3351872      18498.84     
     39000   1.1383609      0.0023323615   0.002616738    20.997451      19.306985      1.690466      -1.3009401      18570.328    
     40000   1.1831029      0.0023323615   0.0025644768   21.155838      19.39893       1.7569078     -1.0375671      18653.631    
     41000   0.92458102     0.0023323615  -0.0014226055   20.66709       19.294087      1.3730028     -1.3312697      18655.838    
     42000   1.0019743      0.0023323615  -0.0021673815   20.670006      19.182075      1.4879319     -1.3297364      18536.596    
     43000   0.90412493     0.0023323615  -0.0038946006   20.510794      19.168168      1.3426255     -1.4202468      18395.845    
     44000   0.95415935     0.0023323615  -0.0015640512   20.43239       19.015463      1.4169266     -1.4537338      18546.485    
     45000   1.0368768      0.0023323615  -0.00082111218  20.7977        19.257938      1.5397621     -1.2336912      18712.898    
     46000   1.0596635      0.0023323615   0.0054914132   20.911516      19.337915      1.5736004     -1.2237281      18673.258    
     47000   1.0044222      0.0023323615   0.0027134626   20.723259      19.231692      1.491567      -1.2260502      18699.058    
     48000   1.0958287      0.0023323615  -0.0034985693   21.220135      19.59283       1.6273057     -0.94776187     18740.172    
     49000   0.82035173     0.0023323615  -0.0037463492   20.677663      19.459441      1.2182223     -1.2076899      18724.251    
     50000   1.0480778      0.0023323615   0.0017857135   20.705423      19.149027      1.5563955     -1.3093698      18564.83     
     51000   1.0198147      0.0023323615  -0.00013921855  20.745059      19.230634      1.5144248     -1.378153       18529.146    
     52000   1.0259392      0.0023323615  -0.0011705616   20.654539      19.131019      1.5235197     -1.286923       18579.955    
     53000   1.0864778      0.0023323615   0.0025746017   20.72797       19.11455       1.6134195     -1.3710597      18572.692    
     54000   0.95968366     0.0023323615  -0.00095679417  20.585007      19.159877      1.4251302     -1.3203838      18701.293    
     55000   1.0299326      0.0023323615   0.0029427121   20.724056      19.194606      1.5294499     -1.3688395      18757.175    
     56000   0.95589837     0.0023323615   0.0019933056   20.965467      19.545957      1.4195091     -0.9777327      18602.706    
     57000   0.92078841     0.0023323615  -0.0021986715   20.870495      19.503125      1.3673708     -1.0273023      18545.947    
     58000   1.003091       0.0023323615  -0.0038664483   20.521111      19.031521      1.4895902     -1.4443997      18630.363    
     59000   0.89354305     0.0023323615   0.0040615694   20.488164      19.161252      1.3269114     -1.2765321      18597.42     
     60000   1.0334989      0.0023323615   0.002732531    20.81232       19.277574      1.5347459     -1.1203462      18669.5      
     61000   1.049704       0.0023323615   0.0016518133   20.842924      19.284114      1.5588104     -1.2360101      18757.292    
     62000   1.1349987      0.0023323615  -0.0015931278   20.843813      19.15834       1.6854731     -1.3352176      18679.136    
     63000   0.98642932     0.0023323615  -0.003839468    20.896978      19.432131      1.4648475     -1.3283421      18468.021    
     64000   1.1686259      0.0023323615   0.0019181825   21.05253       19.317121      1.7354094     -1.3351307      18585.615    
     65000   0.97016895     0.0023323615  -0.0011756544   20.966956      19.526255      1.4407009     -1.1402236      18671.186    
     66000   1.0255164      0.0023323615   0.00030413211  21.256911      19.73402       1.5228918     -0.94913791     18738.963    
     67000   0.96608758     0.0023323615  -0.00089119621  20.7859        19.35126       1.4346401     -1.1749162      18688.768    
     68000   0.84671118     0.0023323615  -0.001077533    20.309766      19.0524        1.2573661     -1.3359451      18734.98     
     69000   1.0292496      0.0023323615  -0.0021930452   20.794452      19.266016      1.5284356     -1.2653156      18777.201    
     70000   0.90384718     0.0023323615   0.0031063332   20.443525      19.101312      1.3422131     -1.3900363      18719.478    
     71000   1.0536823      0.0023323615   0.00284515     20.784267      19.219548      1.5647182     -1.2619096      18695.45     
     72000   0.9024679      0.0023323615  -0.0012159704   20.609432      19.269267      1.3401648     -1.1909492      18670.38     
     73000   0.91949589     0.0023323615  -0.0028342775   20.604637      19.239186      1.3654514     -1.3545322      18690.811    
     74000   0.99142612     0.0023323615   0.0018466076   20.801298      19.32903       1.4722678     -1.2457564      18713.372    
     75000   0.989108       0.0023323615  -0.0020132599   20.802254      19.333429      1.4688254     -1.2649569      18747.536    
     76000   0.96428309     0.0023323615   0.0026701496   20.617547      19.185586      1.4319604     -1.3085977      18609.616    
     77000   1.0399241      0.0023323615  -1.5172152e-05  20.754542      19.210255      1.5442874     -1.156438       18665.795    
     78000   0.91371576     0.0023323615   0.00192359     20.715104      19.358236      1.3568679     -1.1237477      18626.587    
     79000   0.98051139     0.0023323615  -0.0019872079   20.888233      19.432174      1.4560594     -1.0836613      18706.897    
     80000   0.93560098     0.0023323615  -0.0011548584   20.734053      19.344686      1.3893675     -1.2766903      18864.335    
     81000   1.1052857      0.0023323615  -0.0004679254   20.92287       19.281521      1.6413493     -1.1964832      18586.719    
     82000   1.0916152      0.0023323615   0.0011287652   20.781454      19.160406      1.6210486     -1.3133524      18502.715    
     83000   1.0162058      0.0023323615   0.0026123407   20.63029       19.121225      1.5090656     -1.3384364      19408.863    
     84000   0.99947921     0.0023323615   0.00086349322  20.807375      19.323148      1.4842266     -1.0966573      19192.739    
     85000   1.0410007      0.0023323615   0.00083545167  20.998456      19.45257       1.545886      -1.1427027      19247.41     
     86000   1.0538825      0.0023323615   0.0021074412   20.803745      19.23873       1.5650155     -1.2255946      19648.873    
     87000   1.0411776      0.0023323615   0.00048676373  20.656688      19.110539      1.5461487     -1.2487531      19148.533    
     88000   0.98191524     0.0023323615   0.0020744111   20.761423      19.303279      1.4581441     -1.1883944      18918.684    
     89000   1.0297487      0.0023323615  -0.0010183148   20.995198      19.466021      1.5291768     -1.0177339      19225.518    
     90000   0.86399637     0.0023323615  -0.001369227    20.738036      19.455001      1.2830346     -1.2041333      18887.331    
     91000   0.97739259     0.0023323615   0.00010746148  20.883761      19.432333      1.451428      -1.1005085      18721.107    
     92000   1.2363377      0.0023323615   0.0025790431   21.336677      19.500715      1.8359614     -0.98416929     18918.508    
     93000   1.089672       0.0023323615  -0.0020171844   20.830297      19.212134      1.6181629     -1.3527827      18655.144    
     94000   1.0070013      0.0023323615   0.004528219    20.893665      19.398268      1.4953969     -1.1545359      19154.012    
     95000   0.95755806     0.0023323615   0.0016435488   20.82958       19.407607      1.4219737     -1.0453928      19418.001    
     96000   1.1013988      0.0023323615   0.0019745008   21.077931      19.442353      1.6355773     -1.068953       19211.55     
     97000   0.90088903     0.0023323615   0.00186215     20.70727       19.36945       1.3378202     -1.0921972      18861.522    
     98000   1.0335074      0.0023323615   0.00087808705  20.908329      19.373571      1.5347585     -1.1635278      18843.085    
     99000   1.0314355      0.0023323615  -0.0023608477   20.814781      19.283099      1.5316817     -1.184402       18963.78     
    100000   0.95742225     0.0023323615  -0.0030116103   20.904494      19.482722      1.421772      -1.1764337      18763.092    
    101000   0.82245355     0.0023323615  -0.0016682977   20.470515      19.249171      1.2213435     -1.2545322      18690.752    
    102000   0.96378792     0.0023323615  -0.0003665531   20.51054       19.079315      1.4312251     -1.3145295      18686.315    
    103000   1.0880461      0.0023323615   8.232755e-05   20.840153      19.224405      1.6157485     -1.2866856      18628.565    
    104000   1.0328055      0.0023323615  -0.0014519474   20.762741      19.229025      1.5337162     -1.2232903      18691.091    
    105000   0.97128732     0.0023323615  -0.0017581818   20.821322      19.37896       1.4423617     -1.1595443      18846.686    
    106000   0.83110644     0.0023323615  -0.00018937195  20.706346      19.472153      1.2341931     -1.2287914      18781.381    
    107000   0.85035237     0.0023323615   0.0018233878   20.50331       19.240537      1.2627733     -1.3318522      18591.937    
    108000   1.0083262      0.0023323615  -0.00074109564  20.605775      19.10841       1.4973645     -1.4447175      18588.852    
    109000   1.0579815      0.0023323615  -0.00053798903  20.828516      19.257413      1.5711026     -1.2509885      18618.349    
    110000   0.92958483     0.0023323615  -0.0041040062   20.758423      19.377989      1.3804335     -1.2436784      18572.139    
    111000   0.92587491     0.0023323615  -0.00086393552  20.758449      19.383524      1.3749242     -1.1263567      18672.633    
    112000   0.86271465     0.0023323615   0.002953774    20.528164      19.247033      1.2811312     -1.3167064      18684.09     
    113000   1.0723961      0.0023323615   0.0016669999   20.796953      19.204445      1.5925082     -1.3357816      18631.625    
    114000   1.0070649      0.0023323615  -0.0015838447   20.917383      19.421891      1.4954914     -1.1586851      18589.914    
    115000   1.0357171      0.0023323615  -0.002358461    20.977587      19.439547      1.5380399     -1.3229896      18627.001    
    116000   0.88324922     0.0023323615  -0.00013633141  20.530147      19.218522      1.3116251     -1.4317306      18568.598    
    117000   1.0299414      0.0023323615   0.0026271345   20.841298      19.311835      1.529463      -1.3219436      18539.302    
    118000   0.78604654     0.0023323615   0.0022025079   20.07254       18.905261      1.1672791     -1.4542784      18520.385    
    119000   1.0283922      0.0023323615  -0.00022959402  20.806119      19.278957      1.5271625     -1.214678       18504.701    
    120000   1.1061829      0.0023323615   0.0028335632   20.595447      18.952766      1.6426817     -1.4792233      18512.145    
    121000   0.90174895     0.0023323615  -0.0063380945   20.847278      19.508181      1.3390972     -1.1242342      18627.369    
    122000   0.93508914     0.0023323615   0.0011291495   20.90367       19.515062      1.3886074     -1.0610409      18693.976    
    123000   0.91122211     0.0023323615  -0.0067299431   20.607861      19.254696      1.3531648     -1.2322946      18680.003    
    124000   1.0734671      0.0023323615  -0.00080668431  21.187958      19.593859      1.5940986     -0.92357392     18905.032    
    125000   1.037384       0.0023323615  -0.0022782512   21.076683      19.536168      1.5405152     -0.99133957     18737.267    
    126000   0.94781523     0.0023323615   0.00031067462  20.729109      19.321603      1.4075056     -1.1421983      18641.782    
    127000   1.0863463      0.0023323615  -0.00083366685  21.023243      19.410018      1.6132243     -1.2078171      18473.053    
    128000   1.0220901      0.0023323615  -0.0026885715   20.878084      19.36028       1.5178038     -1.2311208      18612.61     
    129000   0.95606341     0.0023323615   0.00096255932  20.864455      19.444701      1.4197542     -1.2043776      18555.604    
    130000   1.0653382      0.0023323615  -0.0025543207   21.116257      19.534229      1.5820273     -0.98736996     18681.604    
    131000   1.1057879      0.0023323615   0.0020956191   21.101651      19.459556      1.6420951     -1.1163006      18664.026    
    132000   1.015771       0.0023323615   0.0016903406   20.772999      19.264579      1.50842       -1.2636258      18740.799    
    133000   0.90284033     0.0023323615  -0.00047555769  20.33055       18.989832      1.3407179     -1.4751559      18653.687    
    134000   0.98955044     0.0023323615  -0.0022639631   20.763698      19.294216      1.4694824     -1.1716095      18656.065    
    135000   0.83720182     0.0023323615  -0.002648437    20.646018      19.402773      1.2432447     -1.1682524      18674.868    
    136000   0.97076235     0.0023323615  -0.0020197394   20.735854      19.294272      1.4415821     -1.3005471      18794.494    
    137000   1.0164012      0.0023323615   0.0044827025   20.646905      19.137549      1.5093558     -1.2809799      18605.376    
    138000   0.94345038     0.0023323615  -0.003836014    20.830879      19.429855      1.4010238     -1.1810331      18628.166    
    139000   0.9916753      0.0023323615   0.00099041539  20.849122      19.376484      1.4726378     -1.1853862      18724.426    
    140000   1.0029032      0.0023323615  -0.0011768716   21.037067      19.547756      1.4893113     -1.0757063      18764.941    
    141000   0.95340606     0.0023323615   0.0018107469   20.456883      19.041075      1.415808      -1.4397695      18763.582    
    142000   1.1812373      0.0023323615  -0.0030683811   20.971736      19.217599      1.7541373     -1.370913       18642.73     
    143000   1.140432       0.0023323615   9.9224789e-05  20.934495      19.240953      1.6935415     -1.2520438      18649.99     
    144000   1.091946       0.0023323615  -0.00053462278  20.716562      19.095022      1.6215398     -1.4332835      18729.654    
    145000   0.95551617     0.0023323615   0.0039481469   20.736145      19.317203      1.4189415     -1.2339591      18728.358    
    146000   0.94648605     0.0023323615   0.0011095731   20.732479      19.326948      1.4055318     -1.296233       18628.607    
    147000   1.0555349      0.0023323615   0.0012557353   20.674596      19.107127      1.5674693     -1.3342782      18726.998    
    148000   1.0375396      0.0023323615  -0.00059305081  20.798662      19.257915      1.5407462     -1.1707469      18648.661    
    149000   0.9146626      0.0023323615  -0.00044694466  20.566983      19.208709      1.358274      -1.3774482      18630.214    
    150000   0.94899892     0.0023323615  -0.0013775877   20.736784      19.327521      1.4092634     -1.2755378      18551.152    
    151000   0.97714257     0.0023323615  -0.0019740853   20.880586      19.42953       1.4510567     -1.1327393      18887.917    
    152000   0.86645434     0.0023323615  -0.0033512847   20.92869       19.642005      1.2866847     -0.85922736     19289.708    
    153000   1.0126978      0.0023323615  -0.00088871633  20.956281      19.452424      1.5038562     -1.011054       19065.865    
    154000   1.1517072      0.0023323615   0.0024981901   21.142591      19.432306      1.7102851     -1.1567894      18695.92     
    155000   1.0011221      0.0023323615   0.0010898089   21.068783      19.582116      1.4866663     -1.054221       18692.019    
    156000   0.97099347     0.0023323615   0.0022149341   20.958623      19.516697      1.4419253     -1.0959182      18564.042    
    157000   1.0199228      0.0023323615  -2.1134711e-05  20.599718      19.085132      1.5145854     -1.517783       18526.274    
    158000   0.90245017     0.0023323615  -0.0025867198   20.898082      19.557943      1.3401385     -1.0276264      18672.863    
    159000   1.1068773      0.0023323615  -0.00014400748  21.07718       19.433468      1.6437129     -1.0667125      18801.305    
    160000   1.1462362      0.0023323615   0.00018825117  20.848059      19.145898      1.7021608     -1.3632955      18691.032    
    161000   1.0391322      0.0023323615   7.8711242e-05  20.84568       19.302569      1.5431114     -1.1590098      18714.301    
    162000   1.0701146      0.0023323615   0.0008468192   20.736362      19.147242      1.5891202     -1.2608549      18732.358    
    163000   1.0736775      0.0023323615   0.00015069416  21.338466      19.744055      1.5944111     -0.87767729     19110.17     
    164000   0.91014449     0.0023323615  -0.0033281706   20.899282      19.547717      1.3515646     -0.91661147     19698.979    
    165000   0.8518341      0.0023323615  -0.0035048382   20.648917      19.383944      1.2649736     -1.0598739      20936.762    
    166000   1.0018864      0.0023323615   0.0011487244   21.130844      19.643043      1.4878014     -0.90594129     22336.061    
    167000   0.92272237     0.0023323615   0.0010778931   21.170345      19.800102      1.3702427     -0.92444725     22990.664    
    168000   1.1358343      0.0023323615  -0.0011279137   21.457373      19.770659      1.6867139     -0.75935632     22859.958    
    169000   1.1685637      0.0023323615   0.0020582861   21.099735      19.364418      1.7353172     -1.0852896      21692.036    
    170000   1.0114582      0.0023323615   0.00071605155  21.056799      19.554783      1.5020155     -1.0355279      20413.388    
    171000   1.0723237      0.0023323615   0.00083983841  21.153889      19.561488      1.5924008     -0.93601803     20060.449    
    172000   0.96574724     0.0023323615  -0.00015257793  20.963649      19.529515      1.4341347     -0.99150755     19709.143    
    173000   0.98610124     0.0023323615  -0.00018024099  20.877303      19.412942      1.4643603     -1.0215246      19369.485    
    174000   0.88727449     0.0023323615  -0.0019179031   20.898515      19.580913      1.3176026     -1.0168035      19291.087    
    175000   0.84726105     0.0023323615  -0.0019485191   20.608074      19.349891      1.2581827     -1.1566113      19021.465    
    176000   0.88150605     0.0023323615  -0.0017425462   20.671222      19.362185      1.3090365     -1.0894984      19215.455    
    177000   0.86256481     0.0023323615  -7.6032714e-05  20.375527      19.094618      1.2809087     -1.3816128      19022.618    
    178000   0.94220357     0.0023323615   0.0046312777   20.507737      19.108565      1.3991723     -1.4078981      18658.953    
    179000   0.9381355      0.0023323615  -0.0028527918   20.479498      19.086367      1.3931312     -1.3845237      18518.486    
    180000   1.0608727      0.0023323615  -0.00023252873  20.848231      19.272835      1.575396      -1.2868245      18638.803    
    181000   1.0603149      0.0023323615   0.00078252284  20.918239      19.343672      1.5745677     -1.1418399      18541.423    
    182000   1.1229164      0.0023323615   0.00070999918  20.882707      19.215176      1.6675308     -1.2809937      18693.388    
    183000   0.97612889     0.0023323615   0.0017260127   20.584042      19.13449       1.4495514     -1.3582802      18554.021    
    184000   0.98630357     0.0023323615   0.0028023837   20.841575      19.376914      1.4646608     -1.131225       18576.287    
    185000   1.1386786      0.0023323615  -0.0020732      21.188172      19.497234      1.6909377     -1.086178       18754.74     
    186000   0.87961959     0.0023323615  -0.0051252342   20.805051      19.498816      1.3062351     -1.0695437      18823.345    
    187000   0.94403773     0.0023323615   0.0043819482   20.714495      19.312599      1.401896      -1.1562224      18538.152    
    188000   1.0308937      0.0023323615  -0.00062453375  20.513997      18.98312       1.5308771     -1.4481344      18590.244    
    189000   0.9379969      0.0023323615   0.0030902413   20.671268      19.278342      1.3929254     -1.3090812      18675.714    
    190000   1.0039941      0.0023323615  -0.0016196562   20.869588      19.378657      1.4909312     -1.2164797      18641.299    
    191000   1.1045848      0.0023323615   0.00040819552  20.89642       19.256111      1.6403085     -1.2398988      18651.648    
    192000   0.88430166     0.0023323615  -0.0017651443   20.819325      19.506137      1.313188      -1.1610553      18584.809    
    193000   1.0352317      0.0023323615   0.0026786613   21.07473       19.537411      1.5373191     -0.99729033     18796.543    
    194000   1.0330045      0.0023323615   0.0019858098   20.613547      19.079535      1.5340116     -1.3823747      18896.935    
    195000   0.97007413     0.0023323615  -0.0015251655   20.843765      19.403205      1.4405601     -1.1258098      18616.134    
    196000   0.94455247     0.0023323615   0.0010482464   20.531912      19.129251      1.4026604     -1.3643021      18508.235    
    197000   0.88040423     0.0023323615  -0.0018964325   20.459293      19.151893      1.3074003     -1.3826556      18754.832    
    198000   1.00644        0.0023323615   0.004149429    20.608774      19.114211      1.4945635     -1.4228435      18660.599    
    199000   1.1281945      0.0023323615  -4.6496567e-05  21.040096      19.364728      1.6753688     -1.1687086      18576.511    
    200000   1.0836193      0.0023323615   0.0050151504   20.992632      19.383457      1.6091746     -1.1473568      18686.882    
    201000   0.94453869     0.0023323615   0.0041082706   20.69507       19.29243       1.4026399     -1.1655964      18535.794    
    202000   0.90330038     0.0023323615  -0.0025448007   20.869689      19.528288      1.3414011     -0.95691515     18743.107    
    203000   0.93827173     0.0023323615  -0.0019207946   20.777676      19.384343      1.3933335     -1.1059426      18740.137    
    204000   0.92082502     0.0023323615  -0.0028711413   20.784043      19.416618      1.3674252     -1.1452458      18709.138    
    205000   1.0255609      0.0023323615   0.00034043543  20.608127      19.08517       1.5229579     -1.3888571      18771.66     
    206000   1.0800481      0.0023323615   0.0028450139   20.970771      19.366899      1.6038714     -1.1568723      18725.754    
    207000   1.0446721      0.0023323615  -0.002472965    21.086054      19.534716      1.551338      -0.97980707     18876.19     
    208000   0.92627071     0.0023323615  -0.0013167      20.809737      19.434225      1.375512      -1.1931358      18814.34     
    209000   0.87627823     0.0023323615   0.0015104893   20.738855      19.437582      1.3012732     -1.1423071      18646.063    
    210000   0.86232603     0.0023323615  -0.0012754532   20.634332      19.353778      1.2805542     -1.2956498      18690.549    
    211000   0.93390194     0.0023323615  -0.0011803808   20.572208      19.185363      1.3868444     -1.2742157      18668.379    
    212000   0.93044923     0.0023323615  -0.0028505062   20.536301      19.154584      1.3817171     -1.2581264      18610.615    
    213000   1.1340236      0.0023323615  -0.0013641888   20.787598      19.103573      1.6840251     -1.3707535      18531.475    
    214000   1.0667183      0.0023323615  -0.00024477079  20.896255      19.312178      1.5840767     -1.1054037      18648.63     
    215000   0.93751704     0.0023323615   0.0007116586   20.733427      19.341214      1.3922128     -1.2248544      18575.533    
    216000   0.90038672     0.0023323615   0.0020160729   20.788623      19.451549      1.3370743     -1.0878869      18741.218    
    217000   0.98878172     0.0023323615  -0.00058684563  20.602046      19.133705      1.4683409     -1.3521229      18617.797    
    218000   0.96666192     0.0023323615   0.00022775977  20.435817      19.000324      1.4354929     -1.4193038      18540.897    
    219000   1.1330888      0.0023323615  -0.0034972878   20.884703      19.202066      1.6826369     -1.267937       18656.497    
    220000   1.0151582      0.0023323615  -0.00012799349  20.714307      19.206797      1.50751       -1.2605007      18892.983    
    221000   1.0871578      0.0023323615   0.0017654852   20.87448       19.260051      1.6144293     -1.2355213      18732.892    
    222000   1.1616333      0.0023323615   0.0030764828   21.111595      19.38657       1.7250254     -1.1484117      18782.932    
    223000   1.0440089      0.0023323615   0.0017128483   20.754057      19.203704      1.5503532     -1.2533778      18588.984    
    224000   1.0258574      0.0023323615   0.0024698486   21.014921      19.491523      1.5233983     -1.0603862      18546.509    
    225000   1.076079       0.0023323615  -0.0025598955   20.848792      19.250815      1.5979773     -1.2678907      18583.605    
    226000   0.94621796     0.0023323615   0.00041755469  20.88021       19.475076      1.4051337     -1.032206       18643.698    
    227000   0.78998497     0.0023323615  -0.00088098594  20.277407      19.10428       1.1731277     -1.2969282      18689.663    
    228000   1.0865968      0.0023323615  -1.1400671e-05  21.066001      19.452404      1.6135962     -1.1302326      18655.689    
    229000   1.0487076      0.0023323615   0.00037078979  20.727184      19.169853      1.5573308     -1.3653209      18684.496    
    230000   1.0489604      0.0023323615   0.00217557     21.12255       19.564844      1.5577062     -0.94480803     18715.593    
    231000   0.95150768     0.0023323615   0.00085584608  20.605844      19.192855      1.4129889     -1.230449       18862.564    
    232000   0.91094218     0.0023323615   0.0043422352   20.455536      19.102786      1.3527491     -1.3257331      18744.241    
    233000   1.1146959      0.0023323615   0.00071722278  20.827497      19.172173      1.6553234     -1.3104014      18582.864    
    234000   0.98179551     0.0023323615   0.0056883824   20.573941      19.115975      1.4579663     -1.3410691      18614.339    
    235000   0.95020093     0.0023323615   0.00027215419  20.759737      19.348689      1.4110484     -1.178899       18531.612    
    236000   0.9677126      0.0023323615   0.0013243585   20.691261      19.254208      1.4370532     -1.2573134      18582.318    
    237000   0.98189034     0.0023323615   0.00046743854  20.717199      19.259092      1.4581072     -1.1654658      18493.38     
    238000   1.0391077      0.0023323615   0.00098265031  20.760393      19.217318      1.543075      -1.182156       18717.021    
    239000   0.94173667     0.0023323615   0.0012243383   20.513858      19.11538       1.398479      -1.337178       18634.7      
    240000   1.1436606      0.0023323615   0.002920126    21.111541      19.413205      1.698336      -1.0975204      18995.615    
    241000   1.1277606      0.0023323615  -0.00094655407  21.145263      19.470538      1.6747246     -1.0554599      20105.525    
    242000   1.0767256      0.0023323615  -0.00087734471  20.924761      19.325824      1.5989376     -1.113466       20285.301    
    243000   1.0875553      0.0023323615  -0.0025701189   21.290966      19.675947      1.6150196     -0.93551128     20093.896    
    244000   1.0243483      0.0023323615  -0.0024422444   20.807041      19.285883      1.5211572     -1.2180973      19175.895    
    245000   1.0603301      0.0023323615  -0.00073824195  20.953946      19.379356      1.5745902     -1.0914875      18674.516    
    246000   1.00832        0.0023323615  -0.0015710363   20.572303      19.074948      1.4973551     -1.4638398      18630.349    
    247000   1.0664705      0.0023323615  -0.00041883785  20.985521      19.401813      1.5837087     -1.1945456      18690.255    
    248000   1.0266903      0.0023323615  -0.0012059959   21.050201      19.525566      1.524635      -0.95476831     18759.477    
    249000   1.0273275      0.0023323615  -0.0012547237   21.007804      19.482222      1.5255813     -0.99107981     19148.955    
    250000   1.0702822      0.0023323615   0.00091068255  20.841512      19.252143      1.5893691     -1.2343291      18902.826    
    251000   1.0333735      0.0023323615  -0.0014405856   20.803099      19.26854       1.5345597     -1.2671743      18659.445    
    252000   0.95179915     0.0023323615   0.0030887578   20.966754      19.553332      1.4134217     -1.043749       18663.363    
    253000   0.83038935     0.0023323615  -0.0014805977   20.335884      19.102756      1.2331282     -1.3757904      18752.291    
    254000   0.88106425     0.0023323615   0.0006614479   20.538893      19.230513      1.3083804     -1.256205       18582.882    
    255000   0.94559898     0.0023323615  -0.00032523246  20.515837      19.111623      1.4042145     -1.3376456      18553.876    
    256000   0.97706714     0.0023323615   0.0028484608   20.751246      19.300301      1.4509447     -1.3202343      18493.191    
    257000   0.96391419     0.0023323615  -0.0013124098   20.814087      19.382674      1.4314126     -1.043438       18632.015    
    258000   0.98467445     0.0023323615   6.7780361e-05  20.847766      19.385525      1.4622416     -1.1854766      18668.348    
    259000   0.97149839     0.0023323615  -0.0034977469   20.923364      19.480689      1.4426751     -1.1148034      18646.965    
    260000   1.0411174      0.0023323615   5.1391843e-06  20.821859      19.2758        1.5460594     -1.1954864      18661.416    
    261000   1.1211737      0.0023323615  -0.00094848738  21.080399      19.415456      1.664943      -1.1371518      18662.588    
    262000   1.0234068      0.0023323615   0.00136459     20.896901      19.377142      1.5197591     -1.1245532      18854.511    
    263000   0.98327342     0.0023323615   0.0029981655   20.901807      19.441646      1.460161      -1.0420801      18836.812    
    264000   0.96925658     0.0023323615   0.0020692476   20.573286      19.13394       1.439346      -1.2264432      18945.156    
    265000   0.94773796     0.0023323615   0.0024110687   20.941612      19.534221      1.4073909     -1.0472949      19213.277    
    266000   0.83446112     0.0023323615  -0.0034335488   20.830334      19.59116       1.2391748     -1.0076165      18982.526    
    267000   0.9502631      0.0023323615  -0.00038217468  20.862665      19.451524      1.4111407     -1.0330963      18882.74     
    268000   0.9601854      0.0023323615   0.0028369766   20.889785      19.463909      1.4258753     -1.1811231      18891.409    
    269000   1.0108655      0.0023323615   0.00076488016  20.875937      19.374802      1.5011352     -1.1235225      18690.917    
    270000   1.0128392      0.0023323615   0.0011779252   20.893253      19.389187      1.5040662     -1.1366462      18650.648    
    271000   1.1212026      0.0023323615   0.0010334601   20.843596      19.17861       1.6649859     -1.3583409      18505.747    
    272000   0.97328332     0.0023323615  -0.0018111491   20.90877       19.463445      1.4453257     -1.1796537      18504.317    
    273000   0.82813473     0.0023323615  -0.0040392272   20.869661      19.639881      1.2297801     -0.96333779     18787.616    
    274000   0.99863256     0.0023323615  -0.0010413787   20.970659      19.487689      1.4829694     -1.0196305      18979.029    
    275000   1.0987962      0.0023323615   0.00038036097  21.021943      19.39023       1.6317123     -1.0339769      18933.404    
    276000   0.99252693     0.0023323615  -8.8788215e-05  20.822966      19.349064      1.4739025     -1.1317988      18749.656    
    277000   0.93585193     0.0023323615   0.0050075242   20.845423      19.455683      1.3897401     -1.0318958      18986.953    
    278000   1.0057825      0.0023323615   0.00025550651  20.862613      19.369026      1.493587      -1.0237551      18926.781    
    279000   0.93629955     0.0023323615  -0.0013182825   21.05686       19.666455      1.3904048     -0.92087028     18968.342    
    280000   1.1676335      0.0023323615   0.00035657093  21.284426      19.55049       1.7339358     -1.0327432      20580.924    
    281000   1.0253221      0.0023323615  -0.0015786332   20.831264      19.308661      1.5226034     -1.1370412      21189.839    
    282000   0.91118885     0.0023323615  -0.0043497817   21.121373      19.768258      1.3531154     -0.86934999     21028.385    
    283000   1.0159475      0.0023323615  -0.00010061747  20.956622      19.44794       1.508682      -1.1742453      20331.895    
    284000   0.83554253     0.0023323615   0.00050840626  20.346765      19.105984      1.2407807     -1.3339507      19354.462    
    285000   1.0039231      0.0023323615  -0.00067924389  20.634109      19.143283      1.4908258     -1.434376       18429.071    
    286000   1.0780018      0.0023323615   0.0019337879   21.029221      19.428388      1.6008326     -1.0754087      18641.563    
    287000   1.1335771      0.0023323615   0.0011181435   20.965287      19.281925      1.683362      -1.262599       18811.929    
    288000   0.80511323     0.0023323615  -0.002090134    20.296405      19.100812      1.1955931     -1.4435205      18665.698    
    289000   1.126345       0.0023323615   2.4521994e-05  21.054156      19.381534      1.6726224     -1.1785568      18710.092    
    290000   1.0405597      0.0023323615  -0.00031115407  20.846178      19.300947      1.5452311     -1.1978392      18942.916    
    291000   0.7785811      0.0023323615  -0.00049116873  20.780364      19.624171      1.1561929     -1.0136301      19060.095    
    292000   1.0192652      0.0023323615   0.0001366439   20.935124      19.421516      1.5136088     -1.1403149      19095.297    
    293000   0.93763721     0.0023323615  -0.00052663541  20.693009      19.300618      1.3923913     -1.1230707      18919.254    
    294000   1.018253       0.0023323615   0.00019060605  20.970513      19.458407      1.5121057     -1.0693483      18998.608    
    295000   1.1337463      0.0023323615  -0.00059148886  20.950039      19.266426      1.6836133     -1.3666223      18785.216    
    296000   1.0190138      0.0023323615   0.00073381986  20.903874      19.390638      1.5132355     -1.1856023      18598.654    
    297000   1.2143635      0.0023323615   0.0055969086   21.258734      19.455404      1.8033298     -1.1490922      18987.939    
    298000   0.99640859     0.0023323615   0.0048886628   21.002827      19.52316       1.4796668     -1.0400556      19180.395    
    299000   0.8914608      0.0023323615  -0.0022358094   20.925941      19.602121      1.3238193     -0.8520601      19082.41     
    300000   1.0375768      0.0023323615  -0.0020254228   20.984947      19.444146      1.5408016     -0.9848251      18937.855    
    301000   1.1453537      0.0023323615  -0.0010902625   21.065189      19.364339      1.7008503     -1.0917283      18767.103    
    302000   0.96806805     0.0023323615  -0.0044442647   20.684366      19.246785      1.4375811     -1.277949       18680.968    
    303000   0.97548045     0.0023323615   0.0067516394   20.387314      18.938726      1.4485885     -1.4662553      18713.768    
    304000   1.0167156      0.0023323615  -0.00060514662  20.773024      19.263201      1.5098226     -1.3081864      18565.43     
    305000   1.0273164      0.0023323615   0.00092053003  20.733442      19.207877      1.5255648     -1.3265873      18525.91     
    306000   1.0396124      0.0023323615   0.00019097016  20.973274      19.429449      1.5438244     -1.2384844      18689.964    
    307000   0.95380997     0.0023323615   0.0003788423   20.810262      19.393854      1.4164078     -1.2050175      18769.807    
    308000   1.1131975      0.0023323615   0.0051218269   21.230797      19.577698      1.6530983     -0.90901826     18838.01     
    309000   1.042961       0.0023323615   5.3497805e-06  20.988482      19.439685      1.5487971     -1.1190697      19430.785    
    310000   1.0463065      0.0023323615   0.0026937085   21.159543      19.605778      1.5537651     -0.95430243     19695.543    
    311000   0.9259928      0.0023323615   0.0010555544   20.488191      19.113092      1.3750993     -1.3306281      19320.635    
    312000   0.86935866     0.0023323615   0.00094488172  20.642796      19.351798      1.2909976     -1.2175472      18708.475    
    313000   1.0010794      0.0023323615  -0.00053362195  20.715705      19.229102      1.4866028     -1.2492345      18569.82     
    314000   1.0159873      0.0023323615   0.0020825159   20.51301       19.004269      1.5087412     -1.4684099      18562.661    
    315000   1.0748153      0.0023323615  -0.00087840956  20.738037      19.141936      1.5961007     -1.4049743      18458.94     
    316000   1.0375842      0.0023323615  -0.0011488879   20.625712      19.084899      1.5408125     -1.4547321      18566.494    
    317000   1.0790207      0.0023323615   0.0022862615   20.961938      19.359592      1.6023457     -1.3265978      18602.7      
    318000   1.148627       0.0023323615  -0.0031267148   20.80793       19.102219      1.7057111     -1.3817727      18522.496    
    319000   1.1760606      0.0023323615  -3.1910308e-05  20.761062      19.014613      1.74645       -1.4057227      18587.066    
    320000   1.1187018      0.0023323615  -8.6420157e-05  20.60803       18.946758      1.6612722     -1.4500342      18521.575    
    321000   0.96398237     0.0023323615   0.0021468387   20.785465      19.353951      1.4315138     -1.286582       18597.369    
    322000   0.85941852     0.0023323615  -0.0015556274   20.766201      19.489965      1.2762365     -1.092293       18617.005    
    323000   0.94769715     0.0023323615  -0.00051497875  20.86079       19.45346       1.4073303     -1.0947794      18792.254    
    324000   0.86748647     0.0023323615  -0.0013156872   20.573098      19.284881      1.2882174     -1.2770214      18742.977    
    325000   0.99002697     0.0023323615   0.0022567079   21.038234      19.568044      1.4701901     -0.95991726     18883.175    
    326000   0.88632877     0.0023323615  -0.0041051123   20.803356      19.487157      1.3161982     -1.1177037      18802.92     
    327000   0.94659151     0.0023323615   0.0051577833   20.75157       19.345881      1.4056884     -1.2462622      18869.018    
    328000   0.99934334     0.0023323615  -0.00087940494  20.514724      19.030699      1.4840249     -1.4323534      18640.199    
    329000   0.9766729      0.0023323615   0.002642838    20.720215      19.269856      1.4503592     -1.2910562      18649.045    
    330000   0.96890037     0.0023323615   0.00074057877  20.857777      19.41896       1.4388171     -1.1147569      18666.364    
    331000   0.97571522     0.0023323615   0.0022986966   20.439703      18.990766      1.4489371     -1.4673872      18640.136    
    332000   1.0686134      0.0023323615  -0.0037951015   20.723396      19.136505      1.5868908     -1.3439426      19627.278    
    333000   0.96883332     0.0023323615   0.0025243686   20.808478      19.36976       1.4387175     -1.1035664      21247.549    
    334000   0.99936386     0.0023323615  -0.0018537217   21.084503      19.600448      1.4840553     -1.0245815      21469.658    
    335000   0.96058474     0.0023323615   0.0029601887   20.832206      19.405738      1.4264683     -1.0475423      21164.744    
    336000   1.0037484      0.0023323615   0.0018425382   20.738854      19.248287      1.4905664     -1.179481       19941.536    
    337000   0.93433415     0.0023323615  -0.003129841    20.472493      19.085007      1.3874862     -1.4110035      18686.857    
    338000   1.0482033      0.0023323615  -0.0021089163   20.697768      19.141186      1.5565819     -1.3401862      18528.386    
    339000   0.85182178     0.0023323615   0.0039561158   20.486832      19.221876      1.2649553     -1.1487716      18529.679    
    340000   0.98898547     0.0023323615  -0.0020656735   20.794771      19.326127      1.4686434     -1.2425912      18491.091    
    341000   0.92925077     0.0023323615   0.0055296177   21.022264      19.642327      1.3799374     -0.95980851     18714.881    
    342000   1.0080302      0.0023323615  -0.00097061006  20.826368      19.329443      1.4969249     -1.1734934      18595.879    
    343000   0.91934276     0.0023323615  -0.00035492056  20.488819      19.123595      1.365224      -1.3051004      18545.14     
    344000   0.98964987     0.0023323615  -0.00024223383  20.927022      19.457392      1.4696301     -1.1162193      18613.388    
    345000   1.0377711      0.0023323615   0.0038388881   20.841832      19.300742      1.5410901     -1.2826762      18507.257    
    346000   0.98325403     0.0023323615  -0.0046258163   20.990363      19.53023       1.4601322     -1.068763       18636.419    
    347000   0.94891197     0.0023323615  -0.001431829    20.549217      19.140083      1.4091343     -1.3464809      18665.896    
    348000   1.0105672      0.0023323615   0.0012446599   20.660568      19.159876      1.5006922     -1.3545372      18456.086    
    349000   1.1226002      0.0023323615  -0.00084302369  20.942215      19.275153      1.6670613     -1.2346606      18516.184    
    350000   0.88454451     0.0023323615  -0.0019532243   20.485776      19.172227      1.3135486     -1.2815022      18842.21     
    351000   1.0117547      0.0023323615  -0.0025519107   20.668204      19.165748      1.5024557     -1.3302366      18786.796    
    352000   0.97765092     0.0023323615   0.0013545245   20.708146      19.256334      1.4518116     -1.2542443      18845.551    
    353000   1.1817535      0.0023323615   0.00081101964  20.948463      19.193559      1.7549039     -1.3624578      18581.543    
    354000   0.98362682     0.0023323615   0.0027043354   20.472072      19.011387      1.4606858     -1.4175352      18473.309    
    355000   1.0476059      0.0023323615   0.00034382016  20.661653      19.105958      1.5556948     -1.4811938      18449.056    
    356000   0.97827389     0.0023323615  -0.0034616612   20.697962      19.245225      1.4527367     -1.2171293      18279.117    
    357000   0.91905018     0.0023323615   0.0038931916   20.475864      19.111074      1.3647895     -1.4019276      18529.159    
    358000   1.1680289      0.0023323615   0.0021617455   20.979595      19.245072      1.734523      -1.3006481      18458.779    
    359000   1.0720255      0.0023323615   0.0010425251   20.677189      19.085231      1.5919578     -1.4310724      18378.957    
    360000   0.98736498     0.0023323615   0.0029289778   20.714048      19.247811      1.466237      -1.3674367      18379.335    
    361000   1.0706421      0.0023323615   0.0029420859   20.880223      19.290319      1.5899036     -1.251211       18431.034    
    362000   0.95034769     0.0023323615   0.0022527813   20.946873      19.535607      1.4112663     -1.1132315      18567.952    
    363000   1.0248262      0.0023323615  -0.0022876383   20.658483      19.136616      1.5218669     -1.3002896      18668.229    
    364000   1.1128621      0.0023323615   0.0011656851   21.042706      19.390106      1.6526002     -1.0154075      18568.594    
    365000   1.0941035      0.0023323615   0.00059172299  20.972618      19.347874      1.6247437     -1.1333922      18609.872    
    366000   0.99103495     0.0023323615   0.002729938    20.899216      19.427529      1.4716869     -1.0764588      18662.155    
    367000   1.082139       0.0023323615  -0.0035294605   20.925098      19.318121      1.6069764     -1.2582699      18441.509    
    368000   1.1336715      0.0023323615  -0.0016978796   21.198948      19.515446      1.6835022     -1.1751969      18490.225    
    369000   1.0945777      0.0023323615  -0.0010461758   21.025289      19.399841      1.6254479     -1.24838        18428.414    
    370000   0.95345127     0.0023323615   0.0010705467   20.498968      19.083093      1.4158751     -1.3339035      18442.94     
    371000   1.0309032      0.0023323615  -0.00097099549  20.625546      19.094655      1.5308913     -1.3018385      18681.016    
    372000   0.96185765     0.0023323615   0.0014571316   20.807359      19.379         1.4283586     -1.1062451      18921.338    
    373000   0.87147471     0.0023323615   0.00023131535  20.729997      19.435857      1.2941399     -1.1331355      19277.599    
    374000   1.0647744      0.0023323615   0.004550738    20.999669      19.418479      1.58119       -1.1500476      19003.745    
    375000   1.0579986      0.0023323615   0.0013392058   20.835847      19.264719      1.571128      -1.2490087      18564.73     
    376000   0.93778908     0.0023323615   0.0011781719   20.671337      19.27872       1.3926168     -1.103252       18473.668    
    377000   0.90770425     0.0023323615  -0.0014551864   20.670282      19.322341      1.3479408     -1.2426324      18536.582    
    378000   0.90500573     0.0023323615   1.3543652e-05  20.55793       19.213996      1.3439335     -1.2682836      18771.3      
    379000   0.90812585     0.0023323615   0.00013526858  20.893718      19.545151      1.3485669     -1.0552586      19126.334    
    380000   0.96551005     0.0023323615   0.0017409078   20.514447      19.080665      1.4337824     -1.4617833      18648.77     
    381000   1.0692718      0.0023323615  -0.0014480412   20.920592      19.332724      1.5878686     -1.2169367      18515.315    
    382000   1.0291926      0.0023323615   0.00257737     20.583146      19.054795      1.5283509     -1.5173235      18638.183    
    383000   0.82383961     0.0023323615  -0.0024468264   20.528608      19.305207      1.2234018     -1.1724979      18414.767    
    384000   0.99279813     0.0023323615  -0.0011907188   20.859387      19.385082      1.4743052     -1.1577616      18496.783    
    385000   0.9860442      0.0023323615   0.0024348037   20.93685       19.472574      1.4642756     -1.2106985      18578.582    
    386000   0.98724349     0.0023323615  -0.0035988624   20.909908      19.443852      1.4660566     -1.107674       18723.432    
    387000   0.82032604     0.0023323615   4.9394401e-06  20.731442      19.513258      1.2181842     -1.1824218      18643.886    
    388000   0.957802       0.0023323615  -0.0016307859   20.751327      19.328991      1.422336      -1.2308906      18599.736    
    389000   0.96106022     0.0023323615  -0.0013555906   20.985439      19.558265      1.4271744     -1.0137824      18443.737    
    390000   1.0109202      0.0023323615  -0.00068646285  20.73004       19.228824      1.5012164     -1.325857       18512.811    
    391000   0.88700303     0.0023323615  -0.0067620313   20.603896      19.286696      1.3171995     -1.2716602      18660.296    
    392000   0.91896729     0.0023323615  -0.00038771982  20.822425      19.457759      1.3646664     -1.0126893      18729.662    
    393000   0.86828709     0.0023323615   0.0019054568   20.648345      19.358939      1.2894063     -1.0708534      18783.508    
    394000   1.1427286      0.0023323615  -0.004937327    21.077913      19.380961      1.696952      -1.1648011      18871.037    
    395000   1.1575353      0.0023323615   0.005531217    21.015665      19.296725      1.7189399     -1.1801372      18735.737    
    396000   1.0585942      0.0023323615   0.0027408618   20.903053      19.331041      1.5720124     -1.0996528      18726.32     
    397000   1.0144974      0.0023323615   0.00022343621  20.760677      19.254148      1.5065286     -1.2625151      18780.285    
    398000   1.0342455      0.0023323615   0.0014616941   21.141158      19.605303      1.5358546     -1.0080371      18768.412    
    399000   1.0161587      0.0023323615   0.0019959768   20.988099      19.479104      1.5089956     -1.1285335      18963.856    
    400000   0.98542508     0.0023323615  -0.0015781127   21.061604      19.598248      1.4633562     -0.96040091     19171.019    
    401000   1.0367667      0.0023323615  -6.887743e-05   21.229208      19.689609      1.5395985     -1.0234895      18949.53     
    402000   1.0434964      0.0023323615  -0.0027599649   21.132845      19.583253      1.5495921     -0.84925866     18886.348    
    403000   1.1153092      0.0023323615   0.0018850195   20.807345      19.151111      1.6562342     -1.3403678      18773.93     
    404000   1.0260941      0.0023323615   0.0040588048   21.023815      19.500066      1.5237498     -1.1101692      18728.333    
    405000   0.97813974     0.0023323615   8.2462983e-05  20.67991       19.227373      1.4525375     -1.1942415      18820.541    
    406000   0.96314885     0.0023323615   0.00012947032  20.907639      19.477363      1.430276      -1.022847       18863.879    
    407000   1.1490994      0.0023323615   0.0021883292   20.891226      19.184814      1.7064126     -1.2602626      18721.856    
    408000   0.89901409     0.0023323615  -0.0011916351   20.685839      19.350803      1.3350359     -1.193002       18602.006    
    409000   1.0563811      0.0023323615  -0.0025189696   20.634932      19.066206      1.5687259     -1.3440617      18572.619    
    410000   0.97731178     0.0023323615  -5.7024609e-05  20.634961      19.183653      1.451308      -1.3712297      18580.295    
[...]
    861000   0.97532179     0.0023323615  -0.0059253925   20.719406      19.271053      1.4483529     -1.2405934      18561.208    
    862000   1.0186394      0.0023323615   0.0044224069   20.804393      19.291713      1.5126795     -1.2583563      18611.357    
    863000   0.94008324     0.0023323615   2.6744051e-05  20.491045      19.095021      1.3960236     -1.3258512      18627.293    
    864000   0.93891668     0.0023323615  -0.0041828187   21.08068       19.686388      1.3942913     -1.0172194      18851.979    
    865000   0.99623038     0.0023323615   0.0013632978   20.759593      19.280191      1.4794021     -1.147367       18866.311    
    866000   0.92239317     0.0023323615   0.0015596459   20.880703      19.51095       1.3697539     -0.9851691      18765.378    
    867000   0.97322461     0.0023323615  -0.00079088347  21.009341      19.564103      1.4452385     -1.1032416      18893.656    
    868000   1.0770147      0.0023323615   0.0043936047   20.814451      19.215084      1.5993668     -1.192706       18841.001    
    869000   1.1257194      0.0023323615  -0.001621617    20.796142      19.124448      1.6716934     -1.4147881      18678.063    
    870000   1.0608367      0.0023323615  -0.00073469028  20.94023       19.364888      1.5753425     -1.1870016      18640.501    
    871000   0.91240511     0.0023323615   3.3974975e-05  20.294314      18.939392      1.3549216     -1.5146065      18621.857    
    872000   1.0479666      0.0023323615  -0.00027682638  20.898242      19.342011      1.5562304     -1.1188545      18745.79     
    873000   1.0454135      0.0023323615   0.0019899678   20.811307      19.258868      1.552439      -1.1996641      19069.206    
    874000   0.85481766     0.0023323615   0.00018993742  20.901747      19.632343      1.2694042     -0.89337132     18872.928    
    875000   0.90751731     0.0023323615   0.0026953297   20.725405      19.377742      1.3476632     -1.1208958      19078.646    
    876000   0.89420339     0.0023323615   0.00075336512  20.322434      18.994542      1.327892      -1.3603067      18635.038    
    877000   0.88123447     0.0023323615  -0.00080635984  20.596547      19.287913      1.3086332     -1.2770225      18666.186    
    878000   0.98392901     0.0023323615   0.0019601878   20.820246      19.359111      1.4611346     -1.1074666      18709.888    
    879000   0.95695063     0.0023323615  -0.00086607677  20.615755      19.194684      1.4210717     -1.3006324      18964.367    
    880000   0.96291975     0.0023323615  -0.0005743799   20.841341      19.411405      1.4299358     -1.0811166      19067.719    
    881000   0.98409246     0.0023323615  -0.002055552    20.756204      19.294826      1.4613773     -1.0812182      18920.961    
    882000   0.94414361     0.0023323615   0.0012402209   20.839203      19.437149      1.4020533     -1.0072554      18855.123    
    883000   1.130405       0.0023323615   0.00041553399  20.971107      19.292455      1.6786515     -1.1294036      18859.463    
    884000   1.0345073      0.0023323615  -0.00027397063  21.061258      19.525015      1.5362433     -0.9889803      18929.763    
    885000   0.82385049     0.0023323615   0.00016268727  20.846983      19.623565      1.223418      -0.93021575     18882.111    
    886000   0.81519745     0.0023323615   7.8818085e-05  20.911002      19.700433      1.2105682     -0.91163522     18859.117    
    887000   1.0892643      0.0023323615  -0.0039888631   21.325782      19.708224      1.6175575     -0.80780167     19044.653    
    888000   1.066544       0.0023323615   0.0012922933   21.016038      19.43222       1.5838179     -0.96343142     18902.626    
    889000   0.98292812     0.0023323615  -0.0037557171   20.949892      19.490244      1.4596483     -0.9164767      18965.044    
    890000   0.96573034     0.0023323615  -0.00077578607  21.056926      19.622817      1.4341095     -0.8540235      18968.998    
    891000   0.97602176     0.0023323615   0.00018021207  21.339743      19.890351      1.4493923     -0.76775945     19218.063    
    892000   0.92821425     0.0023323615  -0.0021132363   21.074806      19.696408      1.3783982     -0.88028586     19114.979    
    893000   1.0142518      0.0023323615  -0.0019269332   20.908607      19.402444      1.506164      -1.1151679      18932.679    
    894000   1.0296203      0.0023323615  -0.00043431752  20.766908      19.237922      1.5289862     -1.2121291      18642.65     
    895000   1.0869568      0.0023323615  -0.00038724183  20.914022      19.299891      1.6141308     -1.1413546      18796.441    
    896000   0.98003416     0.0023323615  -0.0025078427   20.828794      19.373444      1.4553507     -1.0871004      18784.24     
    897000   1.0674108      0.0023323615  -0.0011273284   20.673762      19.088657      1.5851051     -1.3365028      18827.897    
    898000   1.0469389      0.0023323615   0.00086324455  20.816625      19.261921      1.5547042     -1.4006775      18677.465    
    899000   1.0159811      0.0023323615  -0.0027048189   20.781758      19.273026      1.5087319     -1.2196138      18902.389    
    900000   0.94607706     0.0023323615  -0.00023308633  20.512598      19.107674      1.4049244     -1.4156582      19008.609    
    901000   0.9866923      0.0023323615  -0.0012828221   20.725063      19.259825      1.4652381     -1.2357066      18690.741    
    902000   0.88940196     0.0023323615   0.001511747    20.789115      19.468353      1.3207619     -1.2599318      18571.679    
    903000   1.0469911      0.0023323615   0.0017656823   20.834292      19.27951       1.5547818     -1.3034067      18669.999    
    904000   1.0175844      0.0023323615  -0.00010133546  20.968909      19.457796      1.5111129     -1.1167329      18794.487    
    905000   0.86629491     0.0023323615   0.00059057141  20.804792      19.518344      1.2864479     -1.0111197      18739.068    
    906000   1.0103078      0.0023323615  -2.5348404e-05  20.652395      19.152088      1.5003071     -1.2960166      18689.135    
    907000   1.0044846      0.0023323615  -0.0020792252   21.029941      19.538281      1.4916596     -1.0613583      18672.025    
    908000   0.99902239     0.0023323615   0.00069060637  21.020682      19.537134      1.4835482     -1.1074715      18883.257    
    909000   1.1662671      0.0023323615   0.0041878952   21.2457        19.513793      1.7319066     -0.99061871     18775.128    
    910000   1.0673641      0.0023323615   0.0028845087   20.691434      19.106399      1.5850357     -1.4020279      18784.929    
    911000   0.99053566     0.0023323615   0.00089422723  20.680413      19.209468      1.4709455     -1.3548547      18561.46     
    912000   1.1099746      0.0023323615  -0.0032773414   20.953494      19.305182      1.6483122     -1.3086827      18563.172    
    913000   1.0243141      0.0023323615   0.0033372814   21.060606      19.539499      1.5211064     -1.1925856      18573.342    
    914000   0.93444631     0.0023323615   0.00029590895  20.714922      19.327269      1.3876528     -1.1562521      18687.386    
    915000   0.98911691     0.0023323615  -0.00016357516  20.805757      19.336918      1.4688386     -1.1720342      18625.082    
    916000   0.9100744      0.0023323615  -0.0014938074   20.615401      19.26394       1.3514605     -1.1925837      18492.705    
    917000   0.90882177     0.0023323615   0.0013673072   20.886293      19.536693      1.3496003     -0.97761393     18662.386    
    918000   1.0105207      0.0023323615  -0.00098990603  20.817058      19.316435      1.5006232     -1.2306315      18851.872    
    919000   1.0069851      0.0023323615  -0.003645977    20.815547      19.320174      1.4953728     -1.1828951      18599.122    
    920000   0.89741735     0.0023323615   0.00077093035  20.747905      19.415241      1.3326648     -1.103108       18759.982    
    921000   1.0006679      0.0023323615   0.0014061936   20.894228      19.408236      1.4859919     -1.1060919      18580.108    
    922000   1.0661599      0.0023323615  -0.0026241152   21.072788      19.489541      1.5832474     -1.1158334      18641.225    
    923000   1.0211233      0.0023323615   0.0010251566   20.714282      19.197914      1.5163682     -1.3820607      18637.22     
    924000   0.96988512     0.0023323615   0.0032383289   20.904138      19.463858      1.4402794     -1.1197699      18627.209    
    925000   1.1204272      0.0023323615  -0.0009954918   21.107147      19.443313      1.6638343     -1.1269468      18776.561    
    926000   0.92006228     0.0023323615   0.00069362846  20.764049      19.397757      1.3662925     -1.1508933      18755.395    
    927000   1.1229624      0.0023323615  -0.00051334863  21.062938      19.395339      1.6675991     -1.1930078      18797.991    
    928000   0.94194637     0.0023323615  -0.0027970772   20.762503      19.363713      1.3987904     -1.1752301      18667.667    
    929000   1.1312734      0.0023323615   0.0020373608   21.230927      19.550986      1.6799409     -0.97114592     18838.177    
    930000   1.1703745      0.0023323615  -0.0016804903   21.304857      19.566851      1.7380061     -1.0127828      18843.37     
    931000   1.0080426      0.0023323615  -0.00065053834  20.880799      19.383855      1.4969433     -1.0236527      18807.895    
    932000   1.1191639      0.0023323615   0.0010745034   21.002766      19.340808      1.6619585     -1.1818426      18694.07     
    933000   1.0741922      0.0023323615  -0.00042982     20.988407      19.393232      1.5951754     -1.162543       18666.598    
    934000   1.1347259      0.0023323615  -0.0050840706   21.077562      19.392494      1.6850679     -1.0897476      18751.47     
    935000   0.96152387     0.0023323615   0.00027053244  21.00146       19.573597      1.427863      -1.1165395      18804.284    
    936000   0.82833694     0.0023323615   0.00074798687  20.669124      19.439044      1.2300804     -1.1939367      18867.116    
    937000   1.0155382      0.0023323615   1.3516762e-05  20.877978      19.369904      1.5080743     -1.1322313      18898.234    
    938000   1.1136411      0.0023323615   0.0032880072   20.796796      19.143039      1.653757      -1.3639397      18735.276    
    939000   0.88681011     0.0023323615  -0.0013815386   20.540513      19.2236        1.316913      -1.3116623      18701.247    
    940000   0.78405853     0.0023323615   0.00090870968  20.281754      19.117427      1.1643269     -1.2892215      18825.983    
    941000   1.0753072      0.0023323615   0.0021777305   21.030799      19.433968      1.5968312     -1.112195       18760.461    
    942000   1.0978446      0.0023323615   0.0013319581   21.04754       19.41724       1.6302992     -1.0542199      18654.088    
    943000   1.0381477      0.0023323615  -0.00049745706  20.963284      19.421634      1.5416494     -1.3202237      18709.808    
    944000   1.0395603      0.0023323615   0.0017560465   20.828878      19.285131      1.5437471     -1.1991542      18528.255    
    945000   0.95722243     0.0023323615   0.0019266385   20.798905      19.37743       1.4214753     -1.057382       18525.181    
    946000   1.0089508      0.0023323615  -0.0019861652   20.769059      19.270768      1.498292      -1.279916       18452.037    
    947000   1.003958       0.0023323615   0.0029370814   20.830521      19.339644      1.4908776     -1.321806       18496.221    
    948000   0.90608863     0.0023323615   4.095698e-05   20.519501      19.173959      1.3455416     -1.3764264      18368.035    
    949000   1.0180745      0.0023323615   0.0010343802   20.859824      19.347984      1.5118406     -1.1757155      18615.536    
    950000   1.051722       0.0023323615   0.0030924509   21.043987      19.48218       1.5618072     -1.1515139      18684.185    
    951000   1.1250272      0.0023323615  -0.0041934225   21.276925      19.60626       1.6706655     -0.97617761     18678.999    
    952000   0.8970351      0.0023323615  -0.0025339736   20.562706      19.230609      1.3320971     -1.3384327      18615.648    
    953000   0.953486       0.0023323615   0.0017200128   20.516274      19.100347      1.4159267     -1.2870955      18532.982    
    954000   0.98692305     0.0023323615  -0.0017284515   20.972103      19.506522      1.4655807     -1.0749285      18636.186    
    955000   1.1388484      0.0023323615  -0.0011368961   20.801318      19.110129      1.6911898     -1.3227977      18422.38     
    956000   0.95391964     0.0023323615  -0.00088914051  20.856112      19.439541      1.4165707     -1.0796355      18644.209    
    957000   0.93793586     0.0023323615  -0.00074066182  20.773417      19.380582      1.3928347     -1.1002953      18609.758    
    958000   0.91234726     0.0023323615   0.0040635041   20.76899       19.414154      1.3548357     -1.1437832      18520.887    
    959000   0.88197078     0.0023323615  -0.00036004385  20.700182      19.390455      1.3097266     -1.1927767      18692.201    
    960000   0.92506202     0.0023323615  -0.0012657391   20.725265      19.351548      1.3737171     -1.1893959      18680.894    
    961000   1.135247       0.0023323615   0.00013587556  20.901146      19.215304      1.6858419     -1.2994713      18603.24     
    962000   1.0415496      0.0023323615  -0.00069262208  20.616872      19.070171      1.5467012     -1.3623251      18643.517    
    963000   0.93009103     0.0023323615   0.00091388859  20.803458      19.422273      1.3811852     -1.1029575      18640.759    
    964000   1.0858058      0.0023323615  -0.002311055    21.135037      19.522615      1.6124216     -1.0883488      18640.595    
    965000   1.2747719      0.0023323615   0.0038461011   21.177699      19.284663      1.8930362     -1.281082       18663.593    
    966000   1.039254       0.0023323615   4.7080511e-05  21.038451      19.495159      1.5432922     -0.98822048     18810.759    
    967000   1.0879091      0.0023323615   0.0044135895   21.197322      19.581777      1.615545      -0.93664897     18913.851    
    968000   0.85637775     0.0023323615   0.0010590517   20.894988      19.623267      1.271721      -1.0316793      19224.282    
    969000   0.98508639     0.0023323615  -0.0016513848   20.962284      19.499431      1.4628533     -1.0492112      19536.392    
    970000   1.0217377      0.0023323615   0.0011348613   21.08012       19.56284       1.5172805     -1.2374118      18881.86     
    971000   1.1379139      0.0023323615  -0.0020578916   21.02297       19.333168      1.6898022     -1.195213       18712.263    
    972000   1.0704567      0.0023323615  -4.6337544e-05  20.746299      19.156671      1.5896283     -1.3250361      18590.749    
    973000   0.98677996     0.0023323615  -0.0043188216   20.695001      19.229633      1.4653682     -1.3765886      18530.274    
    974000   0.88487086     0.0023323615   0.0001671756   20.585621      19.271588      1.3140332     -1.3163098      18553.345    
    975000   1.0635483      0.0023323615   0.00090211074  20.591675      19.012306      1.5793693     -1.3730116      18658.74     
    976000   0.91228819     0.0023323615   0.0021193251   20.622333      19.267585      1.354748      -1.2470378      18717.639    
    977000   1.0441856      0.0023323615  -0.0012591204   20.708367      19.157751      1.5506157     -1.2932527      18596.953    
    978000   0.93507978     0.0023323615  -0.0042247289   20.410737      19.022143      1.3885935     -1.4397102      18603.591    
    979000   0.93945896     0.0023323615  -0.00032847119  20.675308      19.280212      1.3950966     -1.2076241      18667.624    
    980000   1.0048842      0.0023323615  -0.0011216116   20.774901      19.282648      1.4922531     -1.2937243      18658.259    
    981000   1.029877       0.0023323615   0.0013215895   21.032626      19.503259      1.5293674     -1.1571572      18636.712    
    982000   0.99943823     0.0023323615  -0.001000223    20.740291      19.256125      1.4841658     -1.3765891      18529.755    
    983000   0.87482705     0.0023323615  -0.0012015361   20.55655       19.257432      1.2991182     -1.3459357      18653.809    
    984000   0.91846415     0.0023323615   0.0004134131   20.75163       19.38771       1.3639193     -1.1164836      18560.255    
    985000   1.019244       0.0023323615   0.00039475235  20.770238      19.256661      1.5135773     -1.2182549      18777.932    
    986000   0.9731011      0.0023323615  -0.0072904871   20.91069       19.465635      1.4450551     -1.1992923      19127.415    
    987000   1.0149332      0.0023323615  -0.0012394252   21.209122      19.701946      1.5071758     -1.0036762      19271.134    
    988000   0.95221482     0.0023323615   3.6268199e-05  20.892819      19.47878       1.414039      -1.1487673      19079.419    
    989000   0.98882111     0.0023323615   0.00047095191  20.857642      19.389242      1.4683994     -1.2344556      18808.49     
    990000   1.1288065      0.0023323615  -0.0044406986   21.216724      19.540446      1.6762777     -0.97542247     18861.633    
    991000   0.98971529     0.0023323615   0.0017904441   20.585469      19.115742      1.4697272     -1.3121147      18898.381    
    992000   1.0121633      0.0023323615   0.0039748148   20.694592      19.191529      1.5030625     -1.2628324      18425.318    
    993000   0.95800597     0.0023323615  -0.0028084373   20.829974      19.407335      1.4226389     -1.1118784      18685.133    
    994000   1.0057439      0.0023323615  -0.0018486433   20.800701      19.307171      1.4935297     -1.1218104      18724.296    
    995000   1.1371403      0.0023323615   0.0033792666   21.390016      19.701362      1.6886533     -0.92215556     18721.564    
    996000   0.9607427      0.0023323615   0.0026336584   20.84081       19.414107      1.4267029     -1.16148        18769.02     
    997000   1.0598315      0.0023323615   0.0014879135   21.006516      19.432666      1.5738498     -1.13638        18606.982    
    998000   1.1347408      0.0023323615   0.0023755675   21.00442       19.31933       1.6850901     -1.2231552      18697.38     
    999000   0.9935682      0.0023323615  -0.0028371159   20.739389      19.26394       1.4754488     -1.2290838      18619.652    
   1000000   0.98521899     0.0023323615  -0.0025276652   21.021938      19.558888      1.4630502     -0.88211851     18745.128    
Loop time of 53.0024 on 1 procs for 1000000 steps with 100 atoms

Performance: 8150567.901 tau/day, 18867.055 timesteps/s
99.4% CPU use with 1 MPI tasks x 1 OpenMP threads

MPI task timing breakdown:
Section |  min time  |  avg time  |  max time  |%varavg| %total
---------------------------------------------------------------
Pair    | 43.963     | 43.963     | 43.963     |   0.0 | 82.94
Bond    | 1.2605     | 1.2605     | 1.2605     |   0.0 |  2.38
Neigh   | 3.8424     | 3.8424     | 3.8424     |   0.0 |  7.25
Comm    | 1.4179     | 1.4179     | 1.4179     |   0.0 |  2.68
Output  | 0.21408    | 0.21408    | 0.21408    |   0.0 |  0.40
Modify  | 1.9467     | 1.9467     | 1.9467     |   0.0 |  3.67
Other   |            | 0.3582     |            |       |  0.68

Nlocal:            100 ave         100 max         100 min
Histogram: 1 0 0 0 0 0 0 0 0 0
Nghost:            344 ave         344 max         344 min
Histogram: 1 0 0 0 0 0 0 0 0 0
Neighs:           4851 ave        4851 max        4851 min
Histogram: 1 0 0 0 0 0 0 0 0 0

Total # of neighbors = 4851
Ave neighs/atom = 48.51
Ave special neighs/atom = 1.98
Neighbor list builds = 97929
Dangerous builds = 80375

write_data      ${outputfile_assembled} nofix nocoeff
write_data      7_assembled.data nofix nocoeff
System init for write_data ...
Generated 0 of 6 mixed pair_coeff terms from geometric mixing rule

Total wall time: 0:00:54
