LAMMPS (23 Jun 2022 - Update 1)
OMP_NUM_THREADS environment is not set. Defaulting to 1 thread. (src/comm.cpp:98)
  using 1 OpenMP thread(s) per MPI task


variable        runtime equal 1000000
variable		subsample_rate equal 1000

variable		outputfile_created string '3_created.data'
variable		outputfile_relaxed string '5_relaxed.data'
variable		outputfile_selfasb string '6_a_self_assemble.lammpstrj'
variable		outputfile_trajlin string '6_b_trajlin.data'
variable		outputfile_assembled string '7_assembled.data'

units           lj
atom_style      full
dimension       3
boundary        p p p
timestep        0.005

read_data       ${outputfile_created}
read_data       3_created.data
Reading data file ...
  orthogonal box = (0 0 0) to (35 35 35)
  1 by 1 by 1 MPI processor grid
  reading atoms ...
  100 atoms
  reading velocities ...
  100 velocities
  scanning bonds ...
  1 = max bonds/atom
  reading bonds ...
  99 bonds
Finding 1-2 1-3 1-4 neighbors ...
  special bond factors lj:    0        0        0       
  special bond factors coul:  0        0        0       
     2 = max # of 1-2 neighbors
     2 = max # of 1-3 neighbors
     4 = max # of 1-4 neighbors
     6 = max # of special neighbors
  special bonds CPU = 0.000 seconds
  read_data CPU = 0.005 seconds

bond_style      fene
bond_coeff      * 30.0 1.5 1.0 1.0
special_bonds   fene
Finding 1-2 1-3 1-4 neighbors ...
  special bond factors lj:    0        1        1       
  special bond factors coul:  0        1        1       
     2 = max # of 1-2 neighbors
     6 = max # of special neighbors
  special bonds CPU = 0.000 seconds

variable        Temp equal 1.0
variable        velSeed equal 926458

velocity        all create ${Temp} ${velSeed}
velocity        all create 1 ${velSeed}
velocity        all create 1 926458

### Output
thermo_style    custom step temp density press etotal pe ke epair spcpu
thermo          1000

###########################################################################
# Soft relaxation (to remove overlaps of particles)
######################################################################

pair_style      soft 1.0
pair_coeff      * * 0.0
variable        prefactor equal ramp(0,300)
fix             rampSoft all adapt 1 pair soft a * * v_prefactor

minimize        0.0 1.0e-8 1000 100000
WARNING: Using 'neigh_modify every 1 delay 0 check yes' setting during minimization (src/min.cpp:187)
Generated 0 of 6 mixed pair_coeff terms from geometric mixing rule
Neighbor list info ...
  update every 1 steps, delay 0 steps, check yes
  max neighbors/atom: 2000, page size: 100000
  master list distance cutoff = 1.3
  ghost atom cutoff = 1.3
  binsize = 0.65, bins = 54 54 54
  1 neighbor lists, perpetual/occasional/extra = 1 0 0
  (1) pair soft, perpetual
      attributes: half, newton on
      pair build: half/bin/newton
      stencil: half/bin/3d
      bin: standard
WARNING: Communication cutoff 1.3 is shorter than a bond length based estimate of 1.7550000000000001. This may lead to errors. (src/comm.cpp:727)
Per MPI rank memory allocation (min/avg/max) = 8.346 | 8.346 | 8.346 Mbytes
   Step          Temp         Density         Press          TotEng         PotEng         KinEng         E_pair         S/CPU     
         0   1              0.0023323615  -0.0039617958   21.524174      20.039174      1.485          0              0            
       362   1              0.0023323615   0.0023090379   21.485548      20.000548      1.485          0              68745.229    
Loop time of 0.00526845 on 1 procs for 362 steps with 100 atoms

78.1% CPU use with 1 MPI tasks x 1 OpenMP threads

Minimization stats:
  Stopping criterion = force tolerance
  Energy initial, next-to-last, final = 
      20.0391741078675   20.0005480767337   20.0005480767337
  Force two-norm initial, final = 11.878422 7.9509778e-09
  Force max component initial, final = 6.6117807 1.3572772e-09
  Final line search alpha, max atom move = 1 1.3572772e-09
  Iterations, force evaluations = 362 738

MPI task timing breakdown:
Section |  min time  |  avg time  |  max time  |%varavg| %total
---------------------------------------------------------------
Pair    | 0.00021381 | 0.00021381 | 0.00021381 |   0.0 |  4.06
Bond    | 0.0023223  | 0.0023223  | 0.0023223  |   0.0 | 44.08
Neigh   | 0.0015351  | 0.0015351  | 0.0015351  |   0.0 | 29.14
Comm    | 0.00019391 | 0.00019391 | 0.00019391 |   0.0 |  3.68
Output  | 0          | 0          | 0          |   0.0 |  0.00
Modify  | 0          | 0          | 0          |   0.0 |  0.00
Other   |            | 0.001003   |            |       | 19.04

Nlocal:            100 ave         100 max         100 min
Histogram: 1 0 0 0 0 0 0 0 0 0
Nghost:             20 ave          20 max          20 min
Histogram: 1 0 0 0 0 0 0 0 0 0
Neighs:              0 ave           0 max           0 min
Histogram: 1 0 0 0 0 0 0 0 0 0

Total # of neighbors = 0
Ave neighs/atom = 0
Ave special neighs/atom = 1.98
Neighbor list builds = 17
Dangerous builds = 0

fix             nvtSoft all nvt temp ${Temp} ${Temp} 0.5
fix             nvtSoft all nvt temp 1 ${Temp} 0.5
fix             nvtSoft all nvt temp 1 1 0.5
run             100000
Generated 0 of 6 mixed pair_coeff terms from geometric mixing rule
WARNING: Communication cutoff 1.3 is shorter than a bond length based estimate of 1.7550000000000001. This may lead to errors. (src/comm.cpp:727)
Per MPI rank memory allocation (min/avg/max) = 7.221 | 7.221 | 7.221 Mbytes
   Step          Temp         Density         Press          TotEng         PotEng         KinEng         E_pair         S/CPU     
       362   1              0.0023323615   0.0023090379   21.485548      20.000548      1.485          0              0            
      1000   0.90989032     0.0023323615  -0.0021940042   21.776974      20.425787      1.3511871      0.00036425437  78057.995    
      2000   0.86546688     0.0023323615   0.0034714157   21.677128      20.39191       1.2852183      0.0025814786   77797.43     
      3000   0.98199538     0.0023323615   0.0028144228   21.866132      20.407869      1.4582631      0.0011756043   74223.659    
      4000   1.004495       0.0023323615  -0.0014058211   21.945624      20.453949      1.4916751      0.011986179    72058.097    
      5000   1.1222705      0.0023323615   0.0044495116   21.986385      20.319813      1.6665718      0.0050317639   74354.423    
      6000   1.0538243      0.0023323615   0.0023957538   21.985713      20.420784      1.564929       0.012100514    72815.234    
      7000   1.0210598      0.0023323615  -0.00038820026  21.904665      20.388391      1.5162738      0              75520.71     
      8000   0.94819751     0.0023323615   0.0024943091   21.747889      20.339816      1.4080733      0              74492.49     
      9000   0.92364502     0.0023323615   0.0020053029   21.724166      20.352554      1.3716129      1.7780894e-05  75688.453    
     10000   0.86685188     0.0023323615   0.00078277366  21.644879      20.357604      1.287275       0.0098636418   76115.277    
     11000   1.0057103      0.0023323615   0.00010113276  21.8558        20.362321      1.4934798      0.020705341    75913.647    
     12000   0.97901664     0.0023323615  -0.0026996968   21.871206      20.417366      1.4538397      0.0052928539   75638.205    
     13000   0.97718436     0.0023323615  -6.1641422e-06  21.963706      20.512587      1.4511188      0.025022446    75481.365    
     14000   1.0530014      0.0023323615  -0.0009993112   21.947994      20.384287      1.5637071      0.0020860456   74684.953    
     15000   0.99094527     0.0023323615   0.0011068478   21.895146      20.423592      1.4715537      0.0015091113   74085.544    
     16000   0.91285091     0.0023323615  -0.00025424173  21.87524       20.519657      1.3555836      0.0047853639   75340.81     
     17000   0.82806978     0.0023323615  -0.00054698156  21.701984      20.472301      1.2296836      0              75569.825    
     18000   1.043278       0.0023323615  -6.6143919e-05  22.003299      20.454031      1.5492679      0.0034319132   76244.646    
     19000   1.0879249      0.0023323615  -0.0017804642   21.998985      20.383416      1.6155685      0.015376175    74878.199    
     20000   1.1144506      0.0023323615   0.0025198298   22.190904      20.535944      1.6549592      0              76071.364    
     21000   1.0427751      0.0023323615   0.0011345349   22.099492      20.550971      1.548521       0.00040047813  76329.422    
     22000   1.0586695      0.0023323615   0.0017882747   22.05673       20.484606      1.5721242      0              76299.487    
     23000   1.0058426      0.0023323615  -0.0055245362   21.954628      20.460951      1.4936763      0.0027619031   73056.98     
     24000   0.98273442     0.0023323615   0.0015147357   21.862067      20.402707      1.4593606      0              75863.566    
     25000   0.95835343     0.0023323615   0.0017808774   21.937761      20.514606      1.4231548      0.00020839942  75406.831    
     26000   0.93993778     0.0023323615  -0.0021777292   21.884849      20.489042      1.3958076      0.0088889834   76027.098    
     27000   0.9308188      0.0023323615  -0.00011239942  21.842252      20.459986      1.3822659      0.021612409    75288.409    
     28000   1.0149581      0.0023323615   0.0041996387   21.906846      20.399633      1.5072129      0.0064059022   75755.55     
     29000   0.92841138     0.0023323615  -2.5398808e-05  21.987185      20.608494      1.3786909      0.0046112484   75678.349    
     30000   1.021043       0.0023323615   0.001589158    22.097958      20.581709      1.5162489      0.016799508    72144.248    
     31000   1.0465985      0.0023323615  -0.0021744286   22.037917      20.483718      1.5541987      0.0057879149   73917.216    
     32000   0.98907108     0.0023323615  -0.0015558606   22.044089      20.575318      1.4687705      0.009448173    75472.234    
     33000   1.0918536      0.0023323615  -0.0025643847   22.039275      20.417873      1.6214025      0              74645.689    
     34000   0.99801543     0.0023323615   0.0016279766   21.932339      20.450286      1.4820529      0.017384617    76995.061    
     35000   1.0352271      0.0023323615  -0.0052971711   22.076004      20.538692      1.5373122      0.00010473809  75414.241    
     36000   1.1141579      0.0023323615  -0.00093279925  22.222491      20.567966      1.6545245      0.00033678641  76417.837    
     37000   1.0369415      0.0023323615   0.00013065175  22.217841      20.677983      1.5398581      0.013788831    75680.072    
     38000   1.0515596      0.0023323615   0.0021717558   22.070766      20.5092        1.561566       0.0067894678   76232.068    
     39000   1.0238495      0.0023323615   0.00026414509  22.040141      20.519725      1.5204165      0.00044464649  72876.795    
     40000   1.0749111      0.0023323615  -0.0026849368   22.039327      20.443084      1.596243       0.012651334    73793.713    
     41000   0.99070886     0.0023323615  -0.0030385564   22.03241       20.561207      1.4712027      0.00092855646  77070.863    
     42000   0.95315224     0.0023323615   0.0019788197   21.965263      20.549832      1.4154311      0.020233689    75011.051    
     43000   1.0644183      0.0023323615  -0.0011168725   22.287172      20.706511      1.5806611      0.039694129    75333.585    
     44000   1.0253747      0.0023323615  -0.006676522    22.066233      20.543552      1.5226814      0              74513.511    
     45000   0.94179556     0.0023323615  -0.0047206018   21.970644      20.572077      1.3985664      0.019869988    75171.325    
     46000   1.0083495      0.0023323615  -0.0017646918   21.972114      20.474715      1.497399       0.00026040605  73578.894    
     47000   0.98767959     0.0023323615  -0.00080218158  22.091674      20.62497       1.4667042      0.024266258    75065.207    
     48000   1.1473449      0.0023323615  -0.0025885687   22.080512      20.376705      1.7038072      0.00065962995  75432.308    
     49000   1.0679312      0.0023323615   0.0017688272   21.970482      20.384604      1.5858779      0.014142422    76347.93     
     50000   0.9581935      0.0023323615   0.0014398836   21.955202      20.532284      1.4229173      0.0055011948   75799.788    
     51000   1.0215759      0.0023323615  -0.00093292688  21.934681      20.41764       1.5170402      0              75404.096    
     52000   0.98079591     0.0023323615   0.0040701936   21.977374      20.520892      1.4564819      0.0020862422   76053.105    
     53000   1.0090927      0.0023323615   0.0013324753   22.095438      20.596935      1.4985027      0              75551.012    
     54000   0.97519627     0.0023323615   0.0013260734   22.070151      20.621984      1.4481665      0.026885444    75507.514    
     55000   1.1805087      0.0023323615  -0.001586238    22.424088      20.671033      1.7530554      0.024690954    75151.118    
     56000   0.98387121     0.0023323615   0.0037155145   22.104425      20.643376      1.4610487      0.01435493     75709.81     
     57000   1.0723812      0.0023323615  -0.0037916262   22.122726      20.53024       1.592486       0.013635549    76303.923    
     58000   1.0152349      0.0023323615   0.00021908047  22.082827      20.575203      1.5076238      0.00077375639  76029.93     
     59000   1.1424502      0.0023323615  -0.0052108657   22.30072       20.604182      1.6965385      0.013308184    76968.761    
     60000   1.0359703      0.0023323615  -0.00097887545  22.188218      20.649802      1.538416       0.00011346294  75539.518    
     61000   1.1646839      0.0023323615  -0.002085017    22.239945      20.51039       1.7295556      0.012918477    77465.58     
     62000   1.101836       0.0023323615   0.0010338878   22.171386      20.53516       1.6362265      0.001396566    75327.104    
     63000   0.96616435     0.0023323615   0.00097550571  21.903821      20.469067      1.4347541      0.013027663    77669.149    
     64000   1.0068907      0.0023323615  -0.0020278726   22.061652      20.566419      1.4952327      0.013750276    76171.214    
     65000   0.98723233     0.0023323615   0.0022441476   22.031073      20.565033      1.46604        0.0066686189   76599.526    
     66000   1.0273881      0.0023323615  -0.0003515278   22.183579      20.657908      1.5256713      0              74762.772    
     67000   0.96528212     0.0023323615  -0.00014822656  21.9396        20.506156      1.4334439      0.010365557    76511.211    
     68000   1.069702       0.0023323615   9.4754668e-05  22.081119      20.492611      1.5885075      0.00049153926  73622.799    
     69000   1.1229502      0.0023323615   0.0011504079   22.200329      20.532748      1.6675811      0.0068454249   76739.275    
     70000   1.0062775      0.0023323615  -0.00085311964  22.094021      20.599699      1.4943221      0.013222355    75034.623    
     71000   1.0906935      0.0023323615   0.00015260357  22.145362      20.525682      1.6196798      0.018338513    75964.32     
     72000   1.010401       0.0023323615  -6.0487182e-06  22.154105      20.653659      1.5004455      0.0013793953   74831.541    
     73000   1.1177599      0.0023323615  -0.0034084797   22.254435      20.594562      1.6598735      0.00011231735  77224.168    
     74000   0.9768019      0.0023323615   0.00016143893  22.07312       20.622569      1.4505508      0.0084515956   74183.503    
     75000   1.1360996      0.0023323615   0.002159116    22.161595      20.474487      1.6871079      0.0089909162   76152.733    
     76000   0.97379329     0.0023323615  -0.00068458621  21.988928      20.542845      1.446083       0              75531.228    
     77000   0.94876793     0.0023323615  -0.0016073976   21.923496      20.514575      1.4089204      0.017745108    75259.744    
     78000   0.83947996     0.0023323615  -0.00062768559  21.726727      20.480099      1.2466277      0.0054510099   76126.072    
     79000   1.0090614      0.0023323615  -0.00080262643  22.068192      20.569736      1.4984562      0.00023011166  76625.223    
     80000   1.1217643      0.0023323615  -0.0038177864   22.367902      20.702082      1.66582        0.032902439    74873.086    
     81000   1.0240158      0.0023323615   0.00023547123  22.031597      20.510933      1.5206635      0.0068767308   73889.416    
     82000   1.003236       0.0023323615  -0.0022802982   21.894199      20.404393      1.4898055      0.019136282    74470.594    
     83000   1.0554159      0.0023323615   0.004011718    22.104562      20.537269      1.5672927      0.0080869707   74376.14     
     84000   0.83527346     0.0023323615  -0.0034122221   21.874648      20.634267      1.2403811      0.0030083664   75621.989    
     85000   1.036002       0.0023323615   0.0013573923   21.962923      20.42446       1.5384629      0.015709144    73817.288    
     86000   0.9432002      0.0023323615  -0.0032183248   21.913588      20.512936      1.4006523      0.013730309    76202.39     
     87000   0.95566008     0.0023323615  -0.00049614223  21.91653       20.497375      1.4191552      0.0035862035   75296.419    
     88000   0.93373351     0.0023323615  -0.00097093893  21.870485      20.483891      1.3865943      0.0018212145   75050.869    
     89000   0.9684944      0.0023323615  -0.00047342045  21.973429      20.535215      1.4382142      0.00087524744  75464.698    
     90000   0.98293324     0.0023323615  -0.0032204602   22.050919      20.591263      1.4596559      0.015353933    76753.087    
     91000   1.0832827      0.0023323615   0.0048517083   22.11977       20.511095      1.6086749      0.0052867789   77117.365    
     92000   0.85899662     0.0023323615  -0.0013049519   21.765697      20.490087      1.27561        0.0024124001   76325.047    
     93000   0.96176266     0.0023323615  -4.4223672e-05  21.874222      20.446004      1.4282176      0.0045653365   75299.373    
     94000   0.96019503     0.0023323615   0.00024459347  21.944954      20.519064      1.4258896      3.8053462e-05  76258.624    
     95000   0.94702149     0.0023323615  -0.0033658915   21.86315       20.456823      1.4063269      0              76722.76     
     96000   0.91119348     0.0023323615  -0.0013197298   21.825018      20.471896      1.3531223      0.00043282989  75911.164    
     97000   1.0016687      0.0023323615  -0.0019514304   22.013024      20.525546      1.487478       0.0048369955   75440.065    
     98000   1.02143        0.0023323615  -0.0057874974   22.177965      20.661142      1.5168235      0              74280.938    
     99000   1.032786       0.0023323615   0.0018228259   21.975336      20.441649      1.5336871      7.1595851e-05  77330.603    
    100000   1.0594928      0.0023323615   0.0036169719   22.011024      20.437677      1.5733468      0.00032948157  75732.096    
    100362   1.1904942      0.0023323615  -0.00089755607  22.316856      20.548972      1.7678839      0.00063845255  75427.855    
Loop time of 1.32535 on 1 procs for 100000 steps with 100 atoms

Performance: 32595214.451 tau/day, 75451.885 timesteps/s
99.4% CPU use with 1 MPI tasks x 1 OpenMP threads

MPI task timing breakdown:
Section |  min time  |  avg time  |  max time  |%varavg| %total
---------------------------------------------------------------
Pair    | 0.050115   | 0.050115   | 0.050115   |   0.0 |  3.78
Bond    | 0.12697    | 0.12697    | 0.12697    |   0.0 |  9.58
Neigh   | 0.80617    | 0.80617    | 0.80617    |   0.0 | 60.83
Comm    | 0.05646    | 0.05646    | 0.05646    |   0.0 |  4.26
Output  | 0.0014358  | 0.0014358  | 0.0014358  |   0.0 |  0.11
Modify  | 0.25       | 0.25       | 0.25       |   0.0 | 18.86
Other   |            | 0.03421    |            |       |  2.58

Nlocal:            100 ave         100 max         100 min
Histogram: 1 0 0 0 0 0 0 0 0 0
Nghost:             60 ave          60 max          60 min
Histogram: 1 0 0 0 0 0 0 0 0 0
Neighs:             36 ave          36 max          36 min
Histogram: 1 0 0 0 0 0 0 0 0 0

Total # of neighbors = 36
Ave neighs/atom = 0.36
Ave special neighs/atom = 1.98
Neighbor list builds = 9821
Dangerous builds = 8265
unfix           nvtSoft
unfix           rampSoft
reset_timestep  0

write_data      ${outputfile_relaxed}
write_data      5_relaxed.data
System init for write_data ...
Generated 0 of 6 mixed pair_coeff terms from geometric mixing rule
WARNING: Communication cutoff 1.3 is shorter than a bond length based estimate of 1.7550000000000001. This may lead to errors. (src/comm.cpp:727)
WARNING: Not all mixed pair coeffs generated from mixing. Use write_data with 'pair ij' option to store all pair coeffs. (src/write_data.cpp:309)

###########################################################################
# Full LJ with Coulomb
######################################################################

# Cutoffs and parameters:
# - Values: Marcel Verkade's Bachelor Thesis
# - Mapping to atom groups: Patrick Onck's paper
# - 1: aliphatic, 2: aromatic, 3: anion, 4: cation
# pair_style	lj/cut/coul/cut <lj_cut_global> <coul_cut_global>
# pair_coeff	<type_1>  <type_2>  <eps>  <sigma>  <r_cut_lj>  <r_cut_coul>

# Problem: Onck's model is much more complex, and Marcel has no sigma reported
# Using sigma=1 randomly

variable		glob_ljeps equal 1.0
variable		glob_ljsig 	equal 1.0
variable		glob_coulcut equal 10.0
variable		att_ljcut equal 2.50
variable		rep_ljcut equal 1.12

pair_style		lj/cut/coul/cut 						${att_ljcut} 	${glob_coulcut}
pair_style		lj/cut/coul/cut 						2.5 	${glob_coulcut}
pair_style		lj/cut/coul/cut 						2.5 	10
pair_coeff		1 1 	${glob_ljeps} 	${glob_ljsig}	${att_ljcut} 	${glob_coulcut}
pair_coeff		1 1 	1 	${glob_ljsig}	${att_ljcut} 	${glob_coulcut}
pair_coeff		1 1 	1 	1	${att_ljcut} 	${glob_coulcut}
pair_coeff		1 1 	1 	1	2.5 	${glob_coulcut}
pair_coeff		1 1 	1 	1	2.5 	10
pair_coeff		1 2 	${glob_ljeps} 	${glob_ljsig}	${att_ljcut} 	${glob_coulcut}
pair_coeff		1 2 	1 	${glob_ljsig}	${att_ljcut} 	${glob_coulcut}
pair_coeff		1 2 	1 	1	${att_ljcut} 	${glob_coulcut}
pair_coeff		1 2 	1 	1	2.5 	${glob_coulcut}
pair_coeff		1 2 	1 	1	2.5 	10
pair_coeff		1 3 	${glob_ljeps} 	${glob_ljsig}	${rep_ljcut} 	${glob_coulcut}
pair_coeff		1 3 	1 	${glob_ljsig}	${rep_ljcut} 	${glob_coulcut}
pair_coeff		1 3 	1 	1	${rep_ljcut} 	${glob_coulcut}
pair_coeff		1 3 	1 	1	1.12 	${glob_coulcut}
pair_coeff		1 3 	1 	1	1.12 	10
pair_coeff		1 4 	${glob_ljeps} 	${glob_ljsig}	${rep_ljcut} 	${glob_coulcut}
pair_coeff		1 4 	1 	${glob_ljsig}	${rep_ljcut} 	${glob_coulcut}
pair_coeff		1 4 	1 	1	${rep_ljcut} 	${glob_coulcut}
pair_coeff		1 4 	1 	1	1.12 	${glob_coulcut}
pair_coeff		1 4 	1 	1	1.12 	10
pair_coeff		2 2 	${glob_ljeps} 	${glob_ljsig}	${att_ljcut} 	${glob_coulcut}
pair_coeff		2 2 	1 	${glob_ljsig}	${att_ljcut} 	${glob_coulcut}
pair_coeff		2 2 	1 	1	${att_ljcut} 	${glob_coulcut}
pair_coeff		2 2 	1 	1	2.5 	${glob_coulcut}
pair_coeff		2 2 	1 	1	2.5 	10
pair_coeff		2 3 	${glob_ljeps} 	${glob_ljsig}	${rep_ljcut} 	${glob_coulcut}
pair_coeff		2 3 	1 	${glob_ljsig}	${rep_ljcut} 	${glob_coulcut}
pair_coeff		2 3 	1 	1	${rep_ljcut} 	${glob_coulcut}
pair_coeff		2 3 	1 	1	1.12 	${glob_coulcut}
pair_coeff		2 3 	1 	1	1.12 	10
pair_coeff		2 4 	${glob_ljeps} 	${glob_ljsig}	${att_ljcut} 	${glob_coulcut}
pair_coeff		2 4 	1 	${glob_ljsig}	${att_ljcut} 	${glob_coulcut}
pair_coeff		2 4 	1 	1	${att_ljcut} 	${glob_coulcut}
pair_coeff		2 4 	1 	1	2.5 	${glob_coulcut}
pair_coeff		2 4 	1 	1	2.5 	10
pair_coeff		3 3 	${glob_ljeps} 	${glob_ljsig}	${rep_ljcut} 	${glob_coulcut}
pair_coeff		3 3 	1 	${glob_ljsig}	${rep_ljcut} 	${glob_coulcut}
pair_coeff		3 3 	1 	1	${rep_ljcut} 	${glob_coulcut}
pair_coeff		3 3 	1 	1	1.12 	${glob_coulcut}
pair_coeff		3 3 	1 	1	1.12 	10
pair_coeff		3 4 	${glob_ljeps} 	${glob_ljsig}	${att_ljcut} 	${glob_coulcut}
pair_coeff		3 4 	1 	${glob_ljsig}	${att_ljcut} 	${glob_coulcut}
pair_coeff		3 4 	1 	1	${att_ljcut} 	${glob_coulcut}
pair_coeff		3 4 	1 	1	2.5 	${glob_coulcut}
pair_coeff		3 4 	1 	1	2.5 	10
pair_coeff		4 4 	${glob_ljeps} 	${glob_ljsig}	${rep_ljcut} 	${glob_coulcut}
pair_coeff		4 4 	1 	${glob_ljsig}	${rep_ljcut} 	${glob_coulcut}
pair_coeff		4 4 	1 	1	${rep_ljcut} 	${glob_coulcut}
pair_coeff		4 4 	1 	1	1.12 	${glob_coulcut}
pair_coeff		4 4 	1 	1	1.12 	10


fix             noDriftRot 	all momentum 10 linear 1 1 1 angular
fix             nvt1 		all nvt temp ${Temp} ${Temp} 0.5
fix             nvt1 		all nvt temp 1 ${Temp} 0.5
fix             nvt1 		all nvt temp 1 1 0.5

# dump          assemble 	all custom 1000 				${outputfile_selfasb} id type xu yu zu vx vy vz
dump            lindump 	all custom ${subsample_rate} 	${outputfile_trajlin} id type xu yu zu vx vy vz
dump            lindump 	all custom 1000 	${outputfile_trajlin} id type xu yu zu vx vy vz
dump            lindump 	all custom 1000 	6_b_trajlin.data id type xu yu zu vx vy vz

run             ${runtime}
run             1000000
Generated 0 of 6 mixed pair_coeff terms from geometric mixing rule
Neighbor list info ...
  update every 1 steps, delay 10 steps, check yes
  max neighbors/atom: 2000, page size: 100000
  master list distance cutoff = 10.3
  ghost atom cutoff = 10.3
  binsize = 5.15, bins = 7 7 7
  1 neighbor lists, perpetual/occasional/extra = 1 0 0
  (1) pair lj/cut/coul/cut, perpetual
      attributes: half, newton on
      pair build: half/bin/newton
      stencil: half/bin/3d
      bin: standard
Per MPI rank memory allocation (min/avg/max) = 7.712 | 7.712 | 7.712 Mbytes
   Step          Temp         Density         Press          TotEng         PotEng         KinEng         E_pair         S/CPU     
         0   1.1904942      0.0023323615  -0.0015115941   21.838314      20.07043       1.7678839     -0.47790386     0            
      1000   1.0345837      0.0023323615   0.0039844701   21.193394      19.657037      1.5363568     -0.73314051     33099.545    
      2000   1.104755       0.0023323615   0.0007363393   21.345963      19.705402      1.6405611     -0.79285639     30699.288    
      3000   1.0396525      0.0023323615  -0.0018642283   21.131041      19.587157      1.543884      -0.85688517     25712.139    
      4000   1.0578746      0.0023323615   0.00030794144  20.815231      19.244287      1.5709437     -1.1746605      20478.002    
      5000   0.96527615     0.0023323615   0.0025213351   20.679822      19.246387      1.4334351     -1.2695606      18385.917    
      6000   1.0947752      0.0023323615  -0.0016502044   20.914626      19.288885      1.6257412     -1.2408532      18580.779    
      7000   0.88181798     0.0023323615  -0.00032327369  20.715887      19.406387      1.3094997     -1.167176       18538.662    
      8000   0.96832898     0.0023323615   0.0025970486   20.789291      19.351323      1.4379685     -1.2161526      18548.166    
      9000   1.054417       0.0023323615   0.0038398221   20.849934      19.284124      1.5658092     -1.1784517      18436.655    
     10000   0.96883915     0.0023323615  -0.001639559    20.870642      19.431916      1.4387261     -1.1370587      18690.062    
     11000   1.1060378      0.0023323615   0.00073050483  21.021126      19.37866       1.6424661     -1.1454141      18739.244    
     12000   1.0228563      0.0023323615   0.0003000423   21.031407      19.512466      1.5189416     -1.0813203      18653.321    
     13000   0.90468528     0.0023323615   0.001950017    20.596904      19.253447      1.3434576     -1.177213       18575.779    
     14000   0.8915219      0.0023323615  -0.0038719085   20.805275      19.481365      1.32391       -1.1692489      18460.295    
     15000   1.0684719      0.0023323615  -0.006034822    20.886681      19.300001      1.5866808     -1.2050999      18412.287    
     16000   1.0932691      0.0023323615  -0.0019535947   20.838502      19.214997      1.6235045     -1.2518973      18532.951    
     17000   0.97952293     0.0023323615  -0.00044078009  21.023978      19.569386      1.4545915     -1.0734448      18497.513    
     18000   0.93940898     0.0023323615   0.002465663    20.814363      19.419341      1.3950223     -1.2016598      18569.054    
     19000   1.0423797      0.0023323615  -0.0034382715   21.133034      19.5851        1.5479338     -1.159969       18535.973    
     20000   1.1443385      0.0023323615   5.5721641e-05  20.880904      19.181561      1.6993427     -1.2742447      18598.311    
     21000   0.98303652     0.0023323615  -0.00068141362  20.878594      19.418785      1.4598092     -1.1170924      18494.726    
     22000   0.95062174     0.0023323615   0.00073990511  20.558752      19.147079      1.4116733     -1.256139       18653.07     
     23000   1.0386431      0.0023323615   0.0016246065   20.675881      19.133496      1.542385      -1.2720467      18789.25     
     24000   1.0054229      0.0023323615  -0.00097742375  20.756874      19.263821      1.4930529     -1.2254953      16322.153    
     25000   0.9775276      0.0023323615  -0.0035261875   20.934139      19.48251       1.4516285     -1.133443       18251.131    
     26000   1.0242664      0.0023323615   0.00060568316  20.855065      19.33403       1.5210356     -1.1488513      18406.48     
     27000   1.0920933      0.0023323615  -0.001036145    21.16239       19.540631      1.6217585     -1.1012917      18511.507    
     28000   1.1177366      0.0023323615  -0.0025065715   21.091372      19.431534      1.6598389     -1.1908823      18547.753    
     29000   0.87688083     0.0023323615  -0.0018228428   20.527112      19.224944      1.302168      -1.2827978      18428.604    
     30000   1.0151132      0.0023323615   0.0011853423   20.824095      19.316652      1.5074431     -1.2971862      18521.251    
     31000   0.92877203     0.0023323615   0.0010052159   20.470522      19.091296      1.3792265     -1.3722593      18417.288    
     32000   0.85974084     0.0023323615  -0.0028387024   20.40583       19.129115      1.2767152     -1.483513       18310.278    
     33000   1.1227479      0.0023323615   0.0036597589   20.659046      18.991765      1.6672807     -1.4930295      18201.487    
     34000   1.0494614      0.0023323615   0.0021863356   20.739611      19.181161      1.5584502     -1.2783461      18450.802    
     35000   1.0323954      0.0023323615  -0.0027335425   21.05817       19.525062      1.5331072     -1.0181875      18500.551    
     36000   1.0485467      0.0023323615  -0.00089792956  20.80059       19.243498      1.5570918     -1.289209       18659.8      
     37000   0.92413871     0.0023323615   0.0020725328   20.685023      19.312677      1.372346      -1.1778729      18550.331    
     38000   0.95466079     0.0023323615   0.00026624605  20.681313      19.263641      1.4176713     -1.2376165      18447.545    
     39000   1.1231181      0.0023323615  -9.8113309e-05  20.736409      19.068578      1.6678304     -1.4573703      18368.445    
     40000   0.93033781     0.0023323615  -0.0054646993   20.671625      19.290074      1.3815516     -1.159264       18639.579    
     41000   0.86729867     0.0023323615   2.4956824e-05  20.552928      19.264989      1.2879385     -1.2082108      18604.839    
     42000   1.0614329      0.0023323615   0.00088765476  20.759353      19.183125      1.5762279     -1.365089       18528.004    
     43000   0.89144997     0.0023323615  -0.0069297022   20.553587      19.229784      1.3238032     -1.2693995      18439.952    
     44000   0.88260861     0.0023323615  -0.0026566839   20.692216      19.381542      1.3106738     -1.1086382      18483.154    
     45000   1.0376468      0.0023323615   0.00099714693  21.004588      19.463682      1.5409055     -1.1056531      18534.83     
     46000   0.94891113     0.0023323615  -0.0040291513   20.660552      19.251419      1.409133      -1.2570171      18673.628    
     47000   1.0173076      0.0023323615  -0.001685831    20.992096      19.481394      1.5107018     -1.0717688      18677.926    
     48000   0.97680055     0.0023323615  -0.001277242    21.117253      19.666704      1.4505488     -0.98616503     18695.254    
     49000   1.0366061      0.0023323615   0.0019320582   21.101945      19.562585      1.53936       -0.94588568     18785.71     
     50000   0.95575743     0.0023323615  -0.00035281973  20.963207      19.543908      1.4192998     -0.9925098      18659.371    
     51000   0.9630696      0.0023323615  -0.0014646077   20.608387      19.178229      1.4301584     -1.3704726      18465.107    
     52000   0.89937804     0.0023323615  -0.0032044541   20.749167      19.413591      1.3355764     -1.2221469      18404.879    
     53000   0.97060325     0.0023323615  -0.00060574946  20.574024      19.132678      1.4413458     -1.4032009      18514.762    
     54000   1.0390471      0.0023323615  -0.0019306162   20.953808      19.410823      1.5429849     -1.2069234      18427.383    
     55000   1.1098108      0.0023323615  -0.0021667334   20.843788      19.195719      1.6480691     -1.3144263      18406.674    
     56000   1.0176915      0.0023323615  -0.0004105201   20.617486      19.106214      1.5112719     -1.2867015      18455.38     
     57000   1.0189961      0.0023323615  -0.00024051628  20.769168      19.255959      1.5132091     -1.2184424      18643.44     
     58000   1.0989547      0.0023323615  -0.0005590767   20.570006      18.938058      1.6319477     -1.4595292      18497.75     
     59000   1.0947396      0.0023323615   0.0016972103   20.966083      19.340395      1.6256883     -1.2127314      18521.4      
     60000   1.0435946      0.0023323615  -0.0023209134   20.716066      19.166328      1.549738      -1.3420178      18599.136    
     61000   0.93114498     0.0023323615  -0.001035321    20.577257      19.194507      1.3827503     -1.2250591      18441.304    
     62000   1.084094       0.0023323615  -0.0012770634   21.086588      19.476709      1.6098796     -1.1370105      18738.913    
     63000   1.017765       0.0023323615  -0.002751377    21.102675      19.591294      1.5113811     -1.0537617      19032.789    
     64000   1.1083162      0.0023323615   0.0011271883   20.823674      19.177825      1.6458496     -1.2926833      18489.009    
     65000   0.98992082     0.0023323615   0.0023950925   20.733625      19.263593      1.4700324     -1.1590454      18561.532    
     66000   1.024928       0.0023323615  -0.00035223152  20.973346      19.451328      1.5220181     -1.09517        18901.061    
     67000   1.030561       0.0023323615   0.0048510991   20.891989      19.361606      1.5303831     -1.2236536      18788.059    
     68000   0.98956567     0.0023323615  -0.00084248583  20.529948      19.060443      1.469505      -1.3571616      18620.232    
     69000   0.84171808     0.0023323615   0.0010682969   20.216873      18.966922      1.2499514     -1.4833812      18337.981    
     70000   1.0800572      0.0023323615   0.0029483981   20.648885      19.045         1.6038849     -1.3529211      18539.884    
     71000   0.93611527     0.0023323615  -0.0032814724   20.468274      19.078143      1.3901312     -1.4987976      18588.644    
     72000   0.99664673     0.0023323615   0.0030244727   20.702222      19.222201      1.4800204     -1.3447316      18415.229    
     73000   0.97393063     0.0023323615  -0.00039134112  20.481395      19.035108      1.446287      -1.3764587      18546.188    
     74000   0.91659368     0.0023323615   0.0030048906   20.750852      19.38971       1.3611416     -1.1399089      18525.425    
     75000   1.0806451      0.0023323615   0.0012388159   20.986944      19.382186      1.604758      -1.0846553      18618.089    
     76000   1.2415492      0.0023323615  -0.0011952443   21.235216      19.391516      1.8437005     -1.2356579      18729.18     
     77000   0.8845621      0.0023323615  -0.0047186833   20.778437      19.464862      1.3135747     -1.1380742      18549.111    
     78000   0.92081738     0.0023323615   0.00047463456  20.775333      19.40792       1.3674138     -1.0061591      18604.853    
     79000   0.93840565     0.0023323615   0.0010338307   20.782888      19.389355      1.3935324     -1.0166902      18673.513    
     80000   0.92516264     0.0023323615  -0.0014935361   20.484753      19.110887      1.3738665     -1.3593467      18448.646    
     81000   1.0609755      0.0023323615   0.0011808895   20.966559      19.391011      1.5755485     -1.1157554      18720.886    
     82000   1.0850217      0.0023323615   0.0031685146   20.889683      19.278425      1.6112572     -1.2333968      18537.339    
     83000   0.99453006     0.0023323615   0.00055138852  20.528781      19.051903      1.4768771     -1.3920536      18476.154    
     84000   0.97742136     0.0023323615  -0.0027764095   20.789264      19.337794      1.4514707     -1.1973474      18582.415    
     85000   1.0219566      0.0023323615   0.00096392256  20.684114      19.166509      1.5176055     -1.3625131      18513.91     
     86000   1.1111179      0.0023323615  -0.0038188476   20.864627      19.214617      1.6500101     -1.313119       18498.356    
     87000   1.2279469      0.0023323615   0.00090568106  20.745899      18.922398      1.8235012     -1.4523924      18438.371    
     88000   1.102296       0.0023323615  -0.0021196855   20.643318      19.006409      1.6369095     -1.5577946      18398.216    
     89000   1.0388191      0.0023323615  -0.0011278517   20.69935       19.156704      1.5426463     -1.4178678      18373.456    
     90000   0.95861275     0.0023323615   0.0005326948   20.864682      19.441142      1.4235399     -1.0688235      18361.183    
     91000   1.0697513      0.0023323615  -0.0028172978   20.951156      19.362575      1.5885807     -1.1153756      18664.643    
     92000   0.96623792     0.0023323615  -0.0028389286   20.633058      19.198195      1.4348633     -1.2213258      18523.702    
     93000   1.0272197      0.0023323615  -0.0010745075   21.013449      19.488028      1.5254212     -1.0556167      18476.127    
     94000   1.0214899      0.0023323615  -0.00085441123  20.580991      19.064078      1.5169125     -1.4317554      18558.83     
     95000   0.89466939     0.0023323615   0.00017797447  20.370186      19.041602      1.328584      -1.3948477      18530.319    
     96000   0.94840571     0.0023323615   0.0018232699   20.519099      19.110716      1.4083825     -1.3921246      18476.387    
     97000   1.0725852      0.0023323615   0.0023554436   20.881584      19.288795      1.5927891     -1.2757973      18475.056    
     98000   1.017413       0.0023323615  -0.00099673039  20.686397      19.175539      1.5108584     -1.3248405      18455.4      
     99000   1.2121407      0.0023323615   0.00045648677  20.952335      19.152306      1.800029      -1.3347854      18480.54     
    100000   1.0215342      0.0023323615   0.0023638524   20.780463      19.263485      1.5169783     -1.2822743      18429.421    
    101000   0.93230669     0.0023323615   0.00083119647  20.568586      19.184111      1.3844754     -1.3213133      18319.627    
    102000   1.0508255      0.0023323615  -0.003696211    20.980792      19.420316      1.5604759     -1.1107067      18604.704    
    103000   0.97830888     0.0023323615  -0.0019094182   21.012337      19.559548      1.4527887     -1.0055802      18887.634    
    104000   1.0304426      0.0023323615   0.0018982106   20.775835      19.245628      1.5302072     -1.2768063      18538.645    
    105000   0.99735409     0.0023323615   0.00054557739  20.632452      19.151381      1.4810708     -1.3513978      18481.648    
    106000   1.0815138      0.0023323615   0.0025743248   20.902404      19.296356      1.606048      -1.1072074      18563.106    
    107000   1.0106467      0.0023323615  -0.0041685355   20.754198      19.253388      1.5008104     -1.3144965      18542.857    
    108000   1.0386108      0.0023323615  -0.0027562194   21.160817      19.61848       1.5423371     -1.0279972      18618.509    
    109000   1.0629248      0.0023323615   0.00058884061  20.795649      19.217206      1.5784433     -1.3855074      18597.937    
    110000   1.0347697      0.0023323615   0.001754657    20.716087      19.179454      1.5366329     -1.3675051      18434.973    
    111000   1.0740752      0.0023323615  -0.00047093381  20.399475      18.804473      1.5950016     -1.638822       18499.687    
    112000   0.9985714      0.0023323615  -0.0016379178   20.79534       19.312461      1.4828785     -1.2352467      18401.028    
    113000   0.97150121     0.0023323615  -0.0017842296   20.848228      19.405548      1.4426793     -1.0439108      18550.217    
    114000   1.0094977      0.0023323615  -0.0013494719   20.824703      19.325599      1.4991041     -1.1868123      18446.417    
    115000   1.0163728      0.0023323615   0.0021815358   20.829691      19.320378      1.5093136     -1.2725941      18329.35     
    116000   0.91206251     0.0023323615   0.0032669712   20.561451      19.207038      1.3544128     -1.2581314      18515.329    
    117000   0.81791525     0.0023323615   0.0050029341   20.471929      19.257325      1.2146041     -1.3260722      18446.638    
    118000   1.0418092      0.0023323615  -0.0021518977   21.073657      19.52657       1.5470867     -1.0318818      19108.666    
    119000   1.0742417      0.0023323615   0.00091094642  21.114813      19.519564      1.5952489     -0.97960572     19445.882    
    120000   1.0854089      0.0023323615   0.0053138051   21.005218      19.393385      1.6118322     -1.1085317      18645.499    
    121000   1.0103579      0.0023323615  -0.0035900815   20.845119      19.344738      1.5003815     -1.3276951      18600.453    
    122000   0.99740542     0.0023323615   0.0017472587   20.387554      18.906407      1.4811471     -1.5353025      18414.77     
    123000   0.98852129     0.0023323615   0.0031802713   20.729394      19.26144       1.4679541     -1.1637411      18587.803    
    124000   1.0627652      0.0023323615  -0.00038214983  20.782589      19.204383      1.5782063     -1.2971531      18685.969    
    125000   1.0242324      0.0023323615  -0.000896823    20.920914      19.399929      1.5209851     -1.0924084      18712.572    
    126000   0.94893331     0.0023323615   0.0049705207   20.804796      19.39563       1.409166      -1.1931301      18582.19     
    127000   1.0038087      0.0023323615  -0.0040886767   20.756964      19.266308      1.490656      -1.2671843      18427.322    
    128000   0.94137132     0.0023323615  -0.00017342126  20.676007      19.278071      1.3979364     -1.221266       18372.809    
    129000   0.93408571     0.0023323615   0.0019568748   20.534304      19.147186      1.3871173     -1.3958353      18437.755    
    130000   0.9331255      0.0023323615  -0.0011535482   20.825084      19.439392      1.3856914     -1.1379501      18605.907    
    131000   1.1125896      0.0023323615  -0.0032243234   21.044618      19.392423      1.6521955     -1.1826469      18569.416    
    132000   1.057329       0.0023323615   0.00054508687  20.829046      19.258912      1.5701336     -1.1475757      18655.88     
    133000   1.0071233      0.0023323615  -0.0052008728   21.157847      19.662269      1.4955781     -0.93228139     18647.756    
    134000   1.0812087      0.0023323615  -0.0020331287   20.991726      19.386132      1.6055949     -1.1127677      18646.836    
    135000   1.0424813      0.0023323615  -0.0038237655   20.61581       19.067726      1.5480848     -1.3332587      18537.205    
    136000   0.9442659      0.0023323615  -0.00091759613  20.776408      19.374173      1.4022349     -1.2553149      18422.281    
    137000   1.0506348      0.0023323615   0.0013667253   20.836373      19.27618       1.5601927     -1.1185081      18624.387    
    138000   0.86880988     0.0023323615  -0.00395194     20.405297      19.115114      1.2901827     -1.4859507      18606.604    
    139000   1.1198705      0.0023323615  -0.00044157416  21.043745      19.380737      1.6630077     -1.1765545      18340.784    
    140000   1.0266693      0.0023323615   0.001352801    20.68201       19.157406      1.5246039     -1.2664376      18528.135    
    141000   1.0831402      0.0023323615   0.00072222015  20.644082      19.035619      1.6084633     -1.3502486      18428.074    
    142000   0.97628286     0.0023323615  -0.00085096472  20.487357      19.037577      1.44978       -1.5360081      18263.778    
    143000   1.0961258      0.0023323615  -0.00049601589  20.79175       19.164003      1.6277469     -1.283073       18443.898    
    144000   0.85052083     0.0023323615  -0.0025427429   20.673426      19.410402      1.2630234     -1.0977978      18714.523    
    145000   0.89084658     0.0023323615   0.0004064554   20.664523      19.341616      1.3229072     -1.2513185      18551.038    
    146000   0.93074058     0.0023323615  -7.936709e-05   20.499672      19.117522      1.3821498     -1.3393122      18465.206    
    147000   1.1103817      0.0023323615   0.0022291645   20.864681      19.215764      1.6489168     -1.3385218      18571.558    
    148000   1.0294472      0.0023323615  -0.00210843     20.972534      19.443805      1.5287291     -1.175072       18633.921    
    149000   1.0848542      0.0023323615  -0.0025355829   20.910593      19.299585      1.6110086     -1.1569266      18703.799    
    150000   1.1429877      0.0023323615  -0.00079692833  21.212893      19.515556      1.6973367     -0.9888344      18733.458    
    151000   0.97909598     0.0023323615  -0.00033045491  20.822272      19.368314      1.4539575     -1.1312232      18693.143    
    152000   1.0163799      0.0023323615  -0.0010761268   20.682126      19.172802      1.5093241     -1.2730216      18526.528    
    153000   1.0965321      0.0023323615   0.0014464257   20.812975      19.184625      1.6283502     -1.3436908      18436.914    
    154000   0.8533999      0.0023323615  -0.002507313    20.46658       19.199281      1.2672988     -1.4035634      18457.557    
    155000   0.97843424     0.0023323615  -0.0046915858   20.771619      19.318644      1.4529748     -1.2943924      18474.605    
    156000   1.0180968      0.0023323615   6.705269e-05   20.676683      19.164809      1.5118737     -1.4100963      18502.992    
    157000   0.96504987     0.0023323615   0.0030944472   20.747448      19.314349      1.4330991     -1.1501235      18711.983    
    158000   1.0228971      0.0023323615   0.00016818482  20.776792      19.25779       1.5190022     -1.2423648      18959.323    
    159000   0.99053439     0.0023323615  -0.0025054103   21.035746      19.564803      1.4709436     -0.98057672     19755.916    
    160000   0.93019039     0.0023323615  -0.0004411869   20.811925      19.430592      1.3813327     -1.1158008      19435.761    
    161000   1.0050353      0.0023323615   0.00016378691  20.757172      19.264695      1.4924775     -1.1421         18784.654    
    162000   0.96248496     0.0023323615  -0.00089089542  20.636646      19.207355      1.4292902     -1.1928005      18716.818    
    163000   1.0411939      0.0023323615   0.0019226324   20.91503       19.368857      1.5461729     -0.97139163     18690.447    
    164000   0.90463728     0.0023323615  -0.0016203521   20.613751      19.270365      1.3433864     -1.20801        18599.538    
    165000   0.87182639     0.0023323615   0.00078277831  20.544597      19.249934      1.2946622     -1.279969       18576.269    
    166000   1.0452496      0.0023323615  -0.0012013158   20.823376      19.27118       1.5521957     -1.1007956      18685.322    
    167000   0.98546764     0.0023323615  -0.0028809484   20.700402      19.236983      1.4634194     -1.2102675      18640.073    
    168000   1.002193       0.0023323615   0.00069148947  20.619666      19.131409      1.4882566     -1.3624599      18485.345    
    169000   0.90538994     0.0023323615   0.00058851941  20.591011      19.246507      1.3445041     -1.3434657      18506.18     
    170000   1.0465213      0.0023323615   0.00075005642  20.933041      19.378957      1.5540842     -1.1702728      18419.211    
    171000   1.0404009      0.0023323615   0.001056296    20.67185       19.126855      1.5449954     -1.2577629      18680.384    
    172000   0.9806191      0.0023323615  -0.00053015694  20.745239      19.28902       1.4562194     -1.2888156      18425.468    
    173000   0.94181118     0.0023323615  -0.0025096432   20.692601      19.294012      1.3985896     -1.3170912      18618.446    
    174000   1.0243266      0.0023323615  -0.0065864344   20.798856      19.277732      1.521125      -1.3181205      18428.424    
    175000   1.1457287      0.0023323615  -0.0012114338   20.616647      18.91524       1.7014071     -1.5556021      18364.943    
    176000   0.98941393     0.0023323615  -0.0023825858   20.893622      19.424342      1.4692797     -1.0778472      18537.563    
    177000   0.95513211     0.0023323615   0.00081725649  20.891853      19.473481      1.4183712     -1.0930282      18605.12     
    178000   1.0951568      0.0023323615  -0.0010184356   20.656349      19.030041      1.6263079     -1.4755267      18400.413    
    179000   1.0787204      0.0023323615   0.00026509311  20.862277      19.260377      1.6018998     -1.2084012      18524.163    
    180000   1.1305614      0.0023323615  -0.0019415621   20.691715      19.012832      1.6788837     -1.446608       18493.325    
    181000   0.85816191     0.0023323615  -0.0044182957   20.455724      19.181354      1.2743704     -1.3451577      18414.78     
    182000   1.0832965      0.0023323615  -0.0019971005   20.76152       19.152824      1.6086953     -1.2529136      18610.896    
    183000   1.0127601      0.0023323615   3.2627398e-05  20.781261      19.277312      1.5039488     -1.2648818      18445.248    
    184000   1.1035903      0.0023323615  -0.001884993    21.306803      19.667972      1.6388316     -1.0589371      18794.674    
    185000   1.0423804      0.0023323615   0.00098163695  20.925674      19.377739      1.5479349     -1.197202       18719.198    
    186000   1.0507108      0.0023323615   0.0033100511   20.954757      19.394451      1.5603055     -1.1522555      18548.883    
    187000   1.065521       0.0023323615   0.00049720919  20.991792      19.409494      1.5822987     -1.2438045      18403.966    
    188000   1.0012449      0.0023323615   0.0032445725   20.726738      19.239889      1.4868487     -1.3130184      18459.756    
    189000   1.0197724      0.0023323615   0.0037175085   20.632085      19.117723      1.5143619     -1.2747653      18632.474    
    190000   0.98448068     0.0023323615   0.0025953861   20.723555      19.261601      1.4619538     -1.202507       18571.137    
    191000   1.0386432      0.0023323615  -0.0034923227   21.009951      19.467566      1.5423851     -1.0997478      18693.811    
    192000   1.0298831      0.0023323615   0.0054887635   20.847796      19.318419      1.5293764     -1.2053791      18600.131    
    193000   0.92007438     0.0023323615   3.2398476e-05  20.561065      19.194754      1.3663105     -1.3498851      18618.311    
    194000   1.1260104      0.0023323615  -0.00093272919  21.103159      19.431034      1.6721255     -1.0797807      18448.108    
    195000   1.1033136      0.0023323615  -0.00074311143  21.132557      19.494136      1.6384207     -1.0683531      18651.669    
    196000   1.1299658      0.0023323615   0.00081465723  21.130505      19.452506      1.6779993     -1.0081415      18772.603    
    197000   1.00663        0.0023323615  -4.257248e-05   20.803987      19.309142      1.4948455     -1.1999351      18537.208    
    198000   0.91178041     0.0023323615  -0.0016484244   20.859954      19.50596       1.3539939     -1.0888345      18591.951    
    199000   1.0543933      0.0023323615  -0.0025328203   20.881918      19.316144      1.565774      -1.276085       18547.704    
    200000   1.0706309      0.0023323615   0.001040701    20.824985      19.235098      1.5898869     -1.1849157      18559.579    
    201000   1.1950166      0.0023323615   0.0023868507   21.187991      19.413392      1.7745997     -1.1750317      18664.78     
    202000   0.91557349     0.0023323615  -0.0020261838   20.595843      19.236217      1.3596266     -1.342687       18689.765    
    203000   0.97984526     0.0023323615  -0.0019937129   20.716592      19.261522      1.4550702     -1.2579561      18521.29     
    204000   1.1335764      0.0023323615   0.0036586523   20.786528      19.103167      1.683361      -1.4539781      18582.816    
    205000   1.0181375      0.0023323615   0.0026117375   20.741603      19.229668      1.5119342     -1.2767257      18556.653    
    206000   1.1377246      0.0023323615   0.0028145074   21.0411        19.351579      1.689521      -1.149181       18385.504    
    207000   1.1294142      0.0023323615  -0.002071056    20.949679      19.272499      1.6771801     -1.2568512      18567.716    
    208000   1.0720007      0.0023323615  -0.0026942819   20.850996      19.259075      1.591921      -1.2733546      18483.086    
    209000   1.115594       0.0023323615  -0.00047271059  21.008989      19.352332      1.656657      -1.1707933      18891.02     
    210000   1.1224319      0.0023323615  -0.0012431851   21.096529      19.429717      1.6668113     -1.053465       19616.852    
    211000   1.1012668      0.0023323615   0.00032947712  21.225194      19.589813      1.6353813     -0.97507594     20485.423    
    212000   0.91668757     0.0023323615   0.0033399695   20.738771      19.37749       1.361281      -1.1944644      19789.5      
    213000   1.0328677      0.0023323615  -0.0019687776   20.90139       19.367582      1.5338086     -1.0849461      19355.839    
    214000   0.97228613     0.0023323615   0.0023179921   20.533764      19.089919      1.4438449     -1.3422591      17426.793    
    215000   1.0841839      0.0023323615   0.0032093654   20.927943      19.31793       1.6100131     -1.1641432      18615.61     
    216000   0.9639355      0.0023323615   0.0038524839   20.618717      19.187272      1.4314442     -1.2998498      18636.057    
    217000   0.92558246     0.0023323615  -0.00057071064  20.527162      19.152672      1.3744899     -1.3064863      18648.763    
    218000   0.87062278     0.0023323615  -0.00095209954  20.676812      19.383937      1.2928748     -1.2013429      18547.97     
    219000   0.95956982     0.0023323615   0.0010662067   20.805903      19.380942      1.4249612     -1.1379971      18575.312    
    220000   0.86158209     0.0023323615  -0.0009152467   20.549607      19.270158      1.2794494     -1.253175       18620.082    
    221000   1.0152356      0.0023323615   0.00021070176  20.809688      19.302063      1.5076249     -1.3195448      18657.052    
    222000   0.98272239     0.0023323615   0.0034024812   20.632744      19.173401      1.4593428     -1.4044029      18576.155    
    223000   1.1296557      0.0023323615   0.001843101    21.057552      19.380013      1.6775387     -1.1572939      18401.011    
    224000   1.060531       0.0023323615   0.0064135653   20.903862      19.328973      1.5748885     -1.2896683      18653.969    
    225000   0.95721451     0.0023323615  -0.0027182618   20.739633      19.31817       1.4214636     -1.2204211      18576.128    
    226000   0.88236329     0.0023323615   0.0015403628   20.457545      19.147236      1.3103095     -1.2873963      18636.2      
    227000   0.94328879     0.0023323615  -0.0040832737   20.684267      19.283483      1.4007838     -1.3170522      18488.553    
    228000   0.96608285     0.0023323615   0.0026562032   20.562873      19.12824       1.434633      -1.3623658      18389.026    
    229000   0.88903502     0.0023323615   6.3437131e-05  20.671102      19.350885      1.320217      -1.3488691      18517.475    
    230000   0.95359145     0.0023323615  -0.0010770388   20.470118      19.054035      1.4160833     -1.4728928      18336.583    
    231000   1.0217951      0.0023323615   0.00068498404  20.919295      19.401929      1.5173657     -1.2024422      18389.236    
    232000   0.9865718      0.0023323615   0.0016095165   20.765365      19.300306      1.4650591     -1.3230702      18637.404    
    233000   1.0116225      0.0023323615  -0.0031679547   20.655854      19.153594      1.5022594     -1.248854       18515.857    
    234000   0.95376051     0.0023323615   0.0044491732   20.567043      19.150708      1.4163344     -1.2881969      18564.612    
    235000   1.0231649      0.0023323615  -0.0038453049   20.776535      19.257135      1.5193999     -1.2580467      18443.069    
    236000   1.1041888      0.0023323615   0.00132747     20.976164      19.336444      1.6397203     -1.2332618      18572.709    
    237000   1.0659917      0.0023323615  -0.00031717845  20.91983       19.336832      1.5829977     -1.1937589      18700.844    
    238000   1.0994033      0.0023323615  -0.00061149479  20.676213      19.043599      1.6326139     -1.5418285      18537.14     
    239000   1.0106608      0.0023323615   0.00011457741  20.760736      19.259905      1.5008313     -1.3355451      18339.696    
    240000   0.94845212     0.0023323615   0.001998554    20.596799      19.188347      1.4084514     -1.3017708      18523.142    
    241000   0.94988396     0.0023323615  -0.0027223022   20.944138      19.533561      1.4105777     -1.2180909      18524.19     
    242000   0.92149911     0.0023323615   0.0026346003   20.81898       19.450554      1.3684262     -1.0808598      18485.027    
    243000   0.92043488     0.0023323615   0.0014952197   20.693812      19.326966      1.3668458     -1.2461253      18445.493    
    244000   1.0292593      0.0023323615   0.0050863555   20.913736      19.385286      1.5284501     -1.3265994      18529.05     
    245000   0.91000699     0.0023323615   0.0029306108   20.856699      19.505338      1.3513604     -1.1466072      18679.157    
    246000   0.9815602      0.0023323615   0.00046869434  20.54204       19.084423      1.4576169     -1.3581967      18672.217    
    247000   0.91748812     0.0023323615   0.00041389279  20.604595      19.242125      1.3624699     -1.2324808      18493.633    
    248000   1.0716974      0.0023323615   0.0023006049   20.976914      19.385443      1.5914706     -1.2528678      18467.335    
    249000   1.0120302      0.0023323615   0.00023755111  20.779729      19.276864      1.5028649     -1.2982181      18451.511    
    250000   0.87332424     0.0023323615   0.001455343    20.966699      19.669812      1.2968865     -1.0317591      18594.684    
    251000   1.0263685      0.0023323615   0.00011405913  20.870094      19.345937      1.5241573     -1.0921388      18699.636    
    252000   0.84768237     0.0023323615  -0.0027434358   20.677414      19.418606      1.2588083     -1.1319723      18735.382    
    253000   0.99121591     0.0023323615   0.0017868892   20.796518      19.324563      1.4719556     -1.3052681      18718.186    
    254000   1.0919703      0.0023323615   0.0016294699   21.060677      19.439102      1.6215759     -1.1444267      18645.565    
    255000   1.0177003      0.0023323615  -0.0025500011   20.683618      19.172333      1.511285      -1.266717       18486.954    
    256000   0.98299388     0.0023323615  -0.00029772547  20.728201      19.268455      1.4597459     -1.2324812      18541.227    
    257000   0.86180994     0.0023323615   0.0011062361   20.597032      19.317245      1.2797878     -1.2797957      18383.462    
    258000   0.96874706     0.0023323615   0.00015290439  20.81866       19.380071      1.4385894     -1.2388037      18543.99     
    259000   1.1037538      0.0023323615  -0.0020341395   21.04703       19.407956      1.6390743     -1.08596        18637.971    
    260000   1.0924535      0.0023323615   0.0005751665   20.792334      19.17004       1.6222935     -1.289761       18591.061    
    261000   0.92627595     0.0023323615  -0.0052092925   20.867746      19.492226      1.3755198     -1.021228       18699.489    
    262000   0.94280291     0.0023323615  -0.002125007    20.516822      19.11676       1.4000623     -1.3093423      18606.223    
    263000   1.0043031      0.0023323615   0.002121301    20.72442       19.23303       1.4913901     -1.247033       18551.752    
    264000   1.0689297      0.0023323615   0.0020621976   20.896721      19.30936       1.5873606     -1.1096006      18440.674    
    265000   1.0857022      0.0023323615   0.0025161882   20.837684      19.225416      1.6122678     -1.2999552      18417.607    
    266000   0.97684043     0.0023323615   0.0028174312   20.627908      19.1773        1.450608      -1.3475338      18375.843    
    267000   0.98305311     0.0023323615  -0.00062393301  20.507114      19.04728       1.4598339     -1.4541674      18282.967    
    268000   0.97620031     0.0023323615   0.00035649197  20.990127      19.540469      1.4496575     -1.1841487      18403.718    
    269000   0.96791201     0.0023323615   0.0012268152   20.719392      19.282043      1.4373493     -1.2586092      18504.523    
    270000   1.2670459      0.0023323615   0.0045809594   20.984652      19.103088      1.8815632     -1.3712817      18625.426    
    271000   1.1628164      0.0023323615   0.0023415524   21.017277      19.290495      1.7267823     -1.2638405      18534.369    
    272000   0.8705105      0.0023323615  -0.00080692397  20.497935      19.205227      1.2927081     -1.3448962      18496.224    
    273000   1.0046448      0.0023323615  -0.0022496248   20.869197      19.3773        1.4918975     -1.2504358      18100.829    
    274000   1.0682195      0.0023323615  -0.0020343541   20.817612      19.231306      1.5863059     -1.2370335      18108.083    
    275000   1.2582727      0.0023323615   0.0023243438   21.059903      19.191368      1.868535      -1.2639903      18368.965    
    276000   0.84926872     0.0023323615  -0.0017034173   20.453087      19.191923      1.261164      -1.2157294      18303.872    
    277000   1.0881372      0.0023323615   0.0039845486   21.170533      19.554649      1.6158838     -0.98791782     18636.227    
    278000   1.1028879      0.0023323615  -0.0015730685   20.735866      19.098078      1.6377885     -1.3483872      18691.456    
    279000   0.92995975     0.0023323615  -0.0027779172   20.770905      19.389914      1.3809902     -1.1240687      18408.575    
    280000   1.0332183      0.0023323615  -0.0015586174   21.193566      19.659237      1.5343291     -1.1300448      18497.887    
    281000   1.0242193      0.0023323615  -3.6908491e-05  20.837397      19.316432      1.5209657     -1.1811565      18388.708    
    282000   0.93949461     0.0023323615  -0.0052283431   20.901913      19.506763      1.3951495     -1.0294217      18453.923    
    283000   0.98362292     0.0023323615   0.0019350727   20.940673      19.479993      1.46068       -1.1182826      18676.126    
    284000   1.0664022      0.0023323615  -0.0012991216   20.972759      19.389151      1.5836072     -1.2153119      18629.052    
    285000   1.1207261      0.0023323615  -0.0011380544   21.155609      19.491331      1.6642783     -1.0315304      18823.182    
    286000   1.0691787      0.0023323615   0.00095752329  21.262719      19.674989      1.5877304     -0.89979501     18995.6      
    287000   0.87692252     0.0023323615  -0.0041861204   20.835459      19.533229      1.3022299     -1.0753931      19016.526    
    288000   1.0930612      0.0023323615  -0.0013553944   20.860997      19.237801      1.6231959     -1.3348676      18517.204    
    289000   0.89190039     0.0023323615   0.0017268057   20.593821      19.269349      1.3244721     -1.3143111      18458.151    
    290000   0.99738489     0.0023323615  -0.00088854743  20.696334      19.215217      1.4811166     -1.3492509      18389.806    
    291000   1.0046494      0.0023323615   0.002440562    20.166064      18.67416       1.4919043     -1.804057       18406.331    
    292000   0.90417964     0.0023323615   0.00046069129  20.412056      19.069349      1.3427068     -1.375794       18468.26     
    293000   1.0852068      0.0023323615  -0.0004929906   20.832379      19.220847      1.6115321     -1.1025043      18558.016    
    294000   0.91061274     0.0023323615   0.00095425015  20.523355      19.171095      1.3522599     -1.3460864      18471.391    
    295000   1.0720123      0.0023323615  -0.00076034941  21.036897      19.444959      1.5919383     -1.0915756      18589.492    
    296000   1.0662839      0.0023323615   0.0038632221   20.876025      19.292594      1.5834315     -1.2502002      18504.245    
    297000   0.86158783     0.0023323615  -0.0013703982   20.346641      19.067183      1.2794579     -1.4254351      18493.123    
    298000   1.1109912      0.0023323615   0.00079489031  20.877982      19.22816       1.6498219     -1.2969481      18592.436    
    299000   1.0144466      0.0023323615   0.0053426639   20.746578      19.240124      1.5064533     -1.324708       18487.331    
    300000   1.1162668      0.0023323615   0.00021769159  21.127899      19.470243      1.6576562     -1.1924313      18558.247    
    301000   0.88622318     0.0023323615  -0.00053526401  20.401756      19.085715      1.3160414     -1.4727037      18435.313    
    302000   1.0504131      0.0023323615  -0.00099542515  20.760587      19.200723      1.5598635     -1.22577        18526.281    
    303000   0.89899806     0.0023323615  -0.00042566926  20.597055      19.262043      1.3350121     -1.2009179      18445.609    
    304000   1.06603        0.0023323615  -0.0032322375   20.605704      19.022649      1.5830546     -1.4267963      18419.065    
    305000   1.0079702      0.0023323615  -0.0017533228   20.591825      19.094989      1.4968357     -1.3183614      18305.268    
    306000   0.99737447     0.0023323615   0.0025720047   20.679338      19.198236      1.4811011     -1.2078151      18365.041    
    307000   0.99617152     0.0023323615  -0.0049077237   20.790387      19.311073      1.4793147     -1.242583       18453.033    
    308000   1.1054398      0.0023323615  -0.0012444498   20.734471      19.092893      1.6415781     -1.3935513      18317.546    
    309000   0.87064004     0.0023323615  -0.0015994621   20.520108      19.227208      1.2929005     -1.2716202      18391.27     
    310000   1.0115036      0.0023323615  -0.0020572785   20.900435      19.398352      1.5020829     -1.2158438      18355.679    
    311000   0.90401268     0.0023323615  -0.0022988234   20.487001      19.144542      1.3424588     -1.3341777      18397.66     
    312000   0.96107448     0.0023323615  -0.0012438254   20.748895      19.321699      1.4271956     -1.2992839      18436.709    
    313000   1.1360188      0.0023323615  -0.0018354015   20.962277      19.275289      1.6869879     -1.3047673      18403.128    
    314000   1.082013       0.0023323615  -0.00037429662  21.033918      19.427128      1.6067893     -1.1670619      18456.001    
    315000   0.86543404     0.0023323615   0.00056016484  20.590638      19.305469      1.2851695     -1.1597313      18623.668    
    316000   1.1710766      0.0023323615   0.00028350109  21.186486      19.447437      1.7390488     -1.0592231      18664.769    
    317000   1.0831805      0.0023323615   0.0019835962   20.951915      19.343392      1.608523      -1.0267259      18760.951    
    318000   1.0504932      0.0023323615   0.00033477465  20.877908      19.317926      1.5599824     -1.1896982      18688.442    
    319000   0.91773994     0.0023323615   0.0017661624   20.644932      19.282089      1.3628438     -1.2675241      18608.838    
    320000   0.9752345      0.0023323615   0.00429013     20.748954      19.300731      1.4482232     -1.2772033      18537.006    
    321000   0.87713391     0.0023323615   0.00091049615  20.573272      19.270728      1.3025439     -1.1612813      18616.311    
    322000   0.84790202     0.0023323615  -0.0013620903   20.463899      19.204765      1.2591345     -1.2345379      18591.923    
    323000   0.8807385      0.0023323615   0.00021910521  20.387971      19.080075      1.3078967     -1.3729413      18596.25     
    324000   1.1443273      0.0023323615  -0.00039612987  20.94406       19.244734      1.699326      -1.1683582      18408.463    
    325000   1.0293085      0.0023323615   0.0020718107   20.669086      19.140563      1.5285231     -1.2716182      18431.266    
    326000   1.0178412      0.0023323615   0.00052308446  20.678654      19.167159      1.5114942     -1.3048779      18581.121    
    327000   1.0731892      0.0023323615   0.0018130772   20.52568       18.931994      1.593686      -1.4799167      18388.562    
    328000   0.86536        0.0023323615  -0.0032732882   20.588206      19.303146      1.2850596     -1.2973114      18486.779    
    329000   0.98403138     0.0023323615  -0.0030959156   20.604155      19.142868      1.4612866     -1.3732851      18364.247    
    330000   0.98768634     0.0023323615   0.00031533786  20.475642      19.008928      1.4667142     -1.3430605      18410.874    
    331000   0.98678527     0.0023323615  -0.00098229281  20.657905      19.192529      1.4653761     -1.3093592      18614.398    
    332000   1.0119297      0.0023323615   0.00076810067  20.800556      19.29784       1.5027156     -1.2550842      18523.699    
    333000   1.0094851      0.0023323615  -0.00077755452  20.780394      19.281308      1.4990854     -1.3853359      18555.56     
    334000   0.94994223     0.0023323615  -0.0024967903   20.548931      19.138267      1.4106642     -1.3669031      18556.004    
    335000   1.0861086      0.0023323615   0.0030239681   20.880465      19.267594      1.6128713     -1.232732       18454.609    
    336000   1.0121953      0.0023323615  -0.0034238697   20.820848      19.317738      1.5031101     -1.1593418      18612.298    
    337000   0.991706       0.0023323615  -0.0010950419   20.784662      19.311979      1.4726834     -1.2170866      18604.707    
    338000   0.9390513      0.0023323615  -0.0021412543   20.509993      19.115502      1.3944912     -1.3430258      18601.784    
    339000   0.97093509     0.0023323615  -0.001201321    20.857016      19.415177      1.4418386     -1.1455873      18492.78     
    340000   1.045058       0.0023323615  -0.0013512358   21.059076      19.507165      1.5519111     -1.0828651      18651.892    
    341000   1.0454518      0.0023323615  -0.0019061923   20.945482      19.392986      1.5524959     -1.1245774      18652.857    
    342000   1.0365453      0.0023323615   0.0010463064   20.92178       19.382511      1.5392697     -1.105249       18625.774    
    343000   1.0462547      0.0023323615   0.00042772592  20.995983      19.442295      1.5536883     -1.087491       18682.223    
    344000   0.98373287     0.0023323615  -2.686838e-05   20.839601      19.378758      1.4608433     -1.1500204      18672.266    
    345000   1.0079802      0.0023323615   0.0043933605   21.247541      19.75069       1.4968506     -0.81971003     18705.53     
    346000   0.98434288     0.0023323615  -0.00072520784  20.672693      19.210944      1.4617492     -1.2718865      18794.076    
    347000   1.0323519      0.0023323615  -0.0040921506   20.785429      19.252387      1.5330426     -1.4013128      18608.002    
    348000   0.91265692     0.0023323615  -0.0012168564   20.665582      19.310287      1.3552955     -1.1672774      18590.552    
    349000   0.97062097     0.0023323615  -0.00041475883  20.76062       19.319247      1.4413721     -1.1924657      18585.934    
    350000   0.95485146     0.0023323615  -0.0010711777   20.807836      19.389882      1.4179544     -1.1508956      18464.762    
    351000   1.1014584      0.0023323615  -2.076148e-05   20.916156      19.280491      1.6356657     -1.2262283      18413.649    
    352000   1.0094961      0.0023323615   0.0045444416   20.831375      19.332273      1.4991018     -1.2543523      18538.451    
    353000   1.0250513      0.0023323615  -0.00049405607  20.767202      19.245001      1.5222011     -1.2876727      18484.558    
    354000   0.98520581     0.0023323615  -0.0037115061   20.725286      19.262255      1.4630306     -1.2562649      18461.996    
    355000   1.2366621      0.0023323615   0.0013164952   21.085338      19.248894      1.8364432     -1.1878172      18414.719    
    356000   1.0342178      0.0023323615   0.00072451473  20.82137       19.285556      1.5358134     -1.1516998      18466.972    
    357000   0.99470458     0.0023323615  -0.0028833274   21.058403      19.581266      1.4771363     -0.93936636     18659.772    
    358000   0.92284411     0.0023323615  -0.00029599455  20.803179      19.432756      1.3704235     -1.0526556      18740.137    
    359000   0.97752669     0.0023323615   0.0013227033   20.810478      19.358851      1.4516271     -1.1327844      18554.859    
    360000   0.99988476     0.0023323615  -0.0006779927   20.773418      19.288589      1.4848289     -1.2863822      18590.524    
    361000   0.97525356     0.0023323615   0.0026176451   20.835915      19.387663      1.4482515     -1.2288107      18886.641    
    362000   1.1342289      0.0023323615  -0.0022703531   20.75797       19.07364       1.6843299     -1.4608045      18811.709    
    363000   0.98823146     0.0023323615   0.0034881823   20.933941      19.466417      1.4675237     -1.1607517      18359.143    
    364000   1.050551       0.0023323615  -0.0025910657   20.964605      19.404537      1.5600682     -1.2663577      18562.016    
    365000   0.89053021     0.0023323615   0.0004628315   20.502637      19.180199      1.3224374     -1.3875371      18461.002    
    366000   1.0342625      0.0023323615   0.0031573411   20.642128      19.106248      1.5358798     -1.3329032      18448.305    
    367000   1.1242804      0.0023323615  -0.0045942547   20.925416      19.25586       1.6695563     -1.2082542      18450.509    
    368000   1.1213449      0.0023323615   0.0024118035   20.893686      19.228488      1.6651972     -1.3747108      18409.543    
    369000   1.0985778      0.0023323615   0.0025476226   21.076854      19.445466      1.631388      -1.1411559      18495.422    
    370000   1.0331819      0.0023323615  -0.0024640258   20.824338      19.290063      1.5342751     -1.2532141      18503.926    
    371000   1.2159988      0.0023323615  -0.0055538116   21.054434      19.248676      1.8057582     -1.3575062      18505.332    
    372000   1.0936916      0.0023323615   0.0018098242   20.753312      19.12918       1.624132      -1.3972569      18440.18     
    373000   0.89184916     0.0023323615  -0.0019573766   20.487307      19.162911      1.324396      -1.4570714      18455.783    
    374000   0.92807137     0.0023323615  -0.0037671465   21.02294       19.644754      1.378186      -0.99821618     18506.372    
    375000   1.0685048      0.0023323615  -0.0002100811   20.794326      19.207596      1.5867297     -1.3337485      18623.497    
    376000   0.9311299      0.0023323615  -0.0051773224   20.636222      19.253494      1.3827279     -1.2729516      18497.691    
    377000   0.92746893     0.0023323615   0.00070762632  20.647164      19.269872      1.3772914     -1.3812306      18599.923    
    378000   1.0898587      0.0023323615  -0.00092268259  21.205278      19.586838      1.6184402     -1.0007946      18609.841    
    379000   0.86400627     0.0023323615  -0.0035360759   20.693872      19.410822      1.2830493     -1.1267665      18583.252    
    380000   0.97556997     0.0023323615   0.0041686283   20.52027       19.071549      1.4487214     -1.3882797      18503.305    
    381000   0.99073644     0.0023323615  -0.0019572188   20.749828      19.278584      1.4712436     -1.2738257      18091.702    
    382000   1.014942       0.0023323615   0.0048606704   20.939767      19.432578      1.5071889     -1.303303       18398.714    
    383000   1.1129952      0.0023323615  -0.0040791968   20.87221       19.219413      1.6527979     -1.286323       18303.73     
    384000   0.97884611     0.0023323615  -0.00043567245  20.797889      19.344303      1.4535865     -1.3892298      18341.924    
    385000   0.98080935     0.0023323615   0.0035543769   20.886967      19.430465      1.4565019     -1.1048945      18507.834    
    386000   0.88584978     0.0023323615  -0.0029119514   20.710045      19.394558      1.3154869     -1.2815594      18567.499    
    387000   0.98880398     0.0023323615   0.0015348868   20.761189      19.292815      1.4683739     -1.2586629      18567.513    
    388000   1.133435       0.0023323615   0.0010619177   20.88254       19.199389      1.683151      -1.2465101      18608.009    
    389000   0.98504753     0.0023323615   0.006262409    20.573277      19.110481      1.4627956     -1.4281659      18352.962    
    390000   1.0016938      0.0023323615   0.000603914    20.612476      19.124961      1.4875154     -1.4569769      18318.595    
    391000   0.97269289     0.0023323615   0.001999065    20.364793      18.920344      1.4444489     -1.5851553      18513.241    
    392000   1.0185583      0.0023323615  -0.0044250608   20.671571      19.159012      1.5125591     -1.3522998      18440.493    
    393000   1.0279247      0.0023323615  -0.0011327178   20.936074      19.409605      1.5264681     -1.1509947      18522.991    
    394000   1.0146431      0.0023323615   0.00072807597  20.920149      19.413404      1.506745      -1.0747056      18507.528    
    395000   0.95911757     0.0023323615   0.0024686624   20.770498      19.346209      1.4242896     -1.0990402      18908.387    
    396000   0.8805837      0.0023323615  -0.0010569165   20.552998      19.245331      1.3076668     -1.1797188      18721.357    
    397000   1.0260652      0.0023323615  -0.0008433961   20.816659      19.292952      1.5237069     -1.1457466      18821.13     
    398000   1.0517763      0.0023323615   0.0018377254   20.708558      19.14667       1.5618878     -1.3900678      18507.789    
    399000   0.9956618      0.0023323615  -0.0030012004   20.855305      19.376748      1.4785578     -1.1901254      18398.619    
    400000   0.97906708     0.0023323615   0.00019438325  20.694927      19.241013      1.4539146     -1.1566867      18652.75     
    401000   1.043214       0.0023323615   0.003082182    21.130807      19.581634      1.5491728     -0.99075175     18615.19     
    402000   1.0230823      0.0023323615   0.0019185075   20.972356      19.453079      1.5192773     -1.0705881      18618.314    
    403000   0.99611028     0.0023323615   0.00099331206  21.008587      19.529363      1.4792238     -1.0915741      18494.781    
    404000   1.0862284      0.0023323615   0.0017958752   20.946398      19.333348      1.6130492     -1.2481859      18701.219    
    405000   0.96448914     0.0023323615  -0.00080435901  20.646039      19.213772      1.4322664     -1.3369137      18621.694    
    406000   0.97673611     0.0023323615   0.004436126    20.722323      19.271869      1.4504531     -1.2544119      18496.992    
    407000   1.0534127      0.0023323615  -0.0051472037   21.038433      19.474116      1.5643178     -1.1360463      18462.02     
    408000   0.95767263     0.0023323615   0.0019489819   20.668306      19.246163      1.4221439     -1.288273       18432.606    
    409000   1.0641666      0.0023323615  -0.00080081198  20.966795      19.386508      1.5802874     -1.1940549      18408.701    
    410000   0.99637309     0.0023323615   0.0033345997   20.881348      19.401734      1.479614      -1.0751899      18596.509    
[...]
    861000   1.104539       0.0023323615  -0.00082619247  21.033909      19.393668      1.6402404     -1.1298287      18494.963    
    862000   1.0351762      0.0023323615  -0.0062368346   21.137159      19.599922      1.5372366     -1.0825282      18610.934    
    863000   1.0285032      0.0023323615  -0.0014626269   20.77239       19.245063      1.5273273     -1.3287379      18626.671    
    864000   1.0936327      0.0023323615   0.0021273159   20.686492      19.062447      1.6240446     -1.3783901      18392.33     
    865000   1.0060818      0.0023323615  -0.0004913094   20.735369      19.241337      1.4940315     -1.2681539      18461.869    
    866000   1.0878384      0.0023323615   0.0058357297   20.613507      18.998067      1.6154401     -1.4974191      18575.211    
    867000   1.061996       0.0023323615  -0.00094235927  20.854679      19.277615      1.5770641     -1.348187       18433.539    
    868000   1.0097973      0.0023323615   0.0017343886   20.721514      19.221965      1.499549      -1.291176       18375.654    
    869000   0.87251143     0.0023323615   0.00065701827  20.308086      19.012406      1.2956795     -1.4607944      18370.561    
    870000   1.1205791      0.0023323615  -0.0063623252   21.000707      19.336647      1.6640599     -1.2478163      18536.82     
    871000   0.94574424     0.0023323615  -0.0020963      20.916336      19.511906      1.4044302     -1.011196       18587.481    
    872000   1.0892133      0.0023323615  -0.0049153837   20.976861      19.359379      1.6174817     -1.2689731      18871.615    
    873000   0.95698191     0.0023323615   0.00024618364  20.983368      19.56225       1.4211181     -1.1111758      18627.946    
    874000   0.89586673     0.0023323615   0.0028161706   20.471601      19.141238      1.3303621     -1.344546       18447.787    
    875000   0.99234565     0.0023323615   0.0040278415   20.903502      19.429869      1.4736333     -1.1360425      18524.5      
    876000   1.0156236      0.0023323615   0.00050588671  21.037072      19.528871      1.5082011     -0.98130871     18734.569    
    877000   1.0693962      0.0023323615   0.00054499566  20.993215      19.405162      1.5880534     -1.1683986      18686.052    
    878000   1.0784099      0.0023323615   0.0010021348   21.142498      19.541059      1.6014386     -0.9652795      18875.965    
    879000   1.0555212      0.0023323615   0.0037489875   20.749977      19.182528      1.5674489     -1.276248       19086.64     
    880000   1.0064055      0.0023323615   0.00032007532  20.791921      19.297409      1.4945122     -1.20309        19051.178    
    881000   1.0622306      0.0023323615  -0.00031562362  20.890482      19.313069      1.5774124     -1.1883092      18976.788    
    882000   1.0194326      0.0023323615  -0.0063382624   20.86546       19.351603      1.5138575     -1.3117162      19347.233    
    883000   0.97719769     0.0023323615  -0.0012191072   20.867501      19.416362      1.4511386     -1.1366596      19604.548    
    884000   0.96592333     0.0023323615  -0.00088663701  20.892818      19.458421      1.4343961     -1.1087227      19607.063    
    885000   1.0012145      0.0023323615   0.0025854469   20.587827      19.101023      1.4868035     -1.2236051      19393.462    
    886000   0.95339123     0.0023323615  -0.00045272207  20.451881      19.036095      1.415786      -1.5257633      18923.232    
    887000   0.94430821     0.0023323615  -0.0040953958   20.733212      19.330914      1.4022977     -1.2277966      18886.083    
    888000   1.0965007      0.0023323615  -8.7311591e-05  20.910392      19.282089      1.6283035     -1.1522656      18745.825    
    889000   0.92141918     0.0023323615   0.0034253984   20.69916       19.330852      1.3683075     -1.1753206      18528.51     
    890000   0.90749183     0.0023323615   0.0011234195   20.540589      19.192964      1.3476254     -1.2510737      18424.584    
    891000   1.0814055      0.0023323615   0.0022901424   20.702084      19.096197      1.6058871     -1.332024       18520.355    
    892000   1.1084016      0.0023323615   0.0018371199   20.891481      19.245504      1.6459764     -1.3343486      18728.773    
    893000   1.1194565      0.0023323615   0.0029059836   20.944667      19.282274      1.6623929     -1.292161       18479.479    
    894000   1.0193838      0.0023323615   0.0005713819   20.61831       19.104525      1.5137849     -1.3993168      18547.219    
    895000   1.067387       0.0023323615   0.0038943392   20.805019      19.219949      1.5850697     -1.4478953      18475.326    
    896000   1.0010974      0.0023323615  -0.0025209871   20.841633      19.355003      1.4866297     -1.2411569      18666.131    
    897000   1.0765136      0.0023323615  -0.00043110984  20.652406      19.053783      1.5986226     -1.4098929      18493.092    
    898000   1.0375097      0.0023323615  -0.0019091196   20.754045      19.213344      1.5407019     -1.3574852      18505.775    
    899000   1.0392431      0.0023323615   0.002206748    20.716752      19.173476      1.5432761     -1.3370495      18526.759    
    900000   0.84775004     0.0023323615   0.0027611801   20.539865      19.280956      1.2589088     -1.2083195      18617.919    
    901000   0.94625566     0.0023323615  -0.0028337499   20.541656      19.136467      1.4051897     -1.3499262      18481.799    
    902000   0.99491817     0.0023323615   0.0012769735   20.739592      19.262139      1.4774535     -1.2228999      18583.671    
    903000   0.98717924     0.0023323615   0.0020694656   20.452673      18.986712      1.4659612     -1.3690209      18663.132    
    904000   0.95686999     0.0023323615   0.0029806503   20.63563       19.214678      1.4209519     -1.3378426      18566.349    
    905000   1.1101587      0.0023323615   0.0010542448   20.875876      19.227291      1.6485856     -1.2065927      18460.694    
    906000   1.0548188      0.0023323615   0.0026193788   20.993267      19.426861      1.5664059     -1.1778107      18632.043    
    907000   0.93937916     0.0023323615  -0.0015475696   20.596107      19.201129      1.3949781     -1.33161        18515.583    
    908000   0.95029433     0.0023323615   0.0016461552   20.688753      19.277566      1.4111871     -1.2402655      18555.776    
    909000   1.1195525      0.0023323615   0.0028415686   21.001826      19.33929       1.6625355     -1.2407975      18535.219    
    910000   0.95408453     0.0023323615  -0.0052458      20.643457      19.226642      1.4168155     -1.3432749      18420.323    
    911000   0.8936345      0.0023323615  -0.00026618092  20.857965      19.530917      1.3270472     -1.1359005      18645.22     
    912000   0.96778573     0.0023323615  -0.0044313778   20.600898      19.163736      1.4371618     -1.222318       18632.606    
    913000   0.89906689     0.0023323615   0.0036856028   20.358964      19.02385       1.3351143     -1.4180877      18632.923    
    914000   1.0596052      0.0023323615  -0.00012736591  20.811532      19.238019      1.5735138     -1.2046656      18565.624    
    915000   1.0471991      0.0023323615   0.00048535862  20.756933      19.201842      1.5550907     -1.2515539      18617.075    
    916000   1.0409874      0.0023323615   0.0014343802   20.862993      19.317126      1.5458662     -1.2885049      18744.502    
    917000   1.085055       0.0023323615  -0.00030753614  20.735454      19.124147      1.6113067     -1.3485911      18718.85     
    918000   1.0280724      0.0023323615  -0.0049598521   20.797066      19.270378      1.5266874     -1.3015226      18614.078    
    919000   1.001616       0.0023323615  -0.0024890658   20.855799      19.368399      1.4873997     -1.1208117      18760.528    
    920000   1.0459767      0.0023323615   0.004938977    20.928757      19.375481      1.5532754     -1.1812025      18788.451    
    921000   0.89265376     0.0023323615  -0.0023653184   20.475862      19.150271      1.3255908     -1.2210195      18585.726    
    922000   0.9171515      0.0023323615  -0.00068390294  20.516695      19.154725      1.36197       -1.3536335      18559.886    
    923000   0.88426523     0.0023323615  -0.00052664087  20.60475       19.291616      1.3131339     -1.2194047      18452.538    
    924000   1.0233197      0.0023323615  -8.6463702e-05  20.664626      19.144996      1.5196297     -1.3570098      18482.661    
    925000   0.95892501     0.0023323615   0.0021990215   20.755926      19.331922      1.4240036     -1.223714       18459.343    
    926000   1.0099559      0.0023323615   6.3074189e-05  20.678554      19.17877       1.4997845     -1.2585357      18522.283    
    927000   0.87795101     0.0023323615   0.00086300606  20.63235       19.328593      1.3037573     -1.2799447      18420.867    
    928000   0.75730768     0.0023323615  -0.0028931503   20.455121      19.330519      1.1246019     -1.2154608      18477.987    
    929000   0.92381174     0.0023323615   0.0022216598   20.706176      19.334316      1.3718604     -1.1041203      18589.34     
    930000   1.0178168      0.0023323615   0.0031693237   20.629098      19.11764       1.511458      -1.3334425      18546.237    
    931000   0.88420777     0.0023323615  -0.00017781801  20.783318      19.470269      1.3130485     -1.1590366      18493.582    
    932000   0.90092131     0.0023323615   0.0022959147   20.387777      19.049909      1.3378681     -1.4835917      18519.767    
    933000   1.0490281      0.0023323615   0.00117727     20.686963      19.129156      1.5578068     -1.3981905      18498.278    
    934000   1.1569317      0.0023323615   0.00035124438  20.921248      19.203204      1.7180436     -1.3208801      18320.478    
    935000   1.1963078      0.0023323615   0.0023377716   21.015972      19.239455      1.7765171     -1.309741       18497.239    
    936000   1.0834172      0.0023323615  -0.0019923411   21.068919      19.460044      1.6088745     -1.1231775      18613.419    
    937000   1.0509431      0.0023323615   0.0003357048   20.804085      19.243435      1.5606506     -1.2515783      18532.373    
    938000   0.98876172     0.0023323615  -0.0010211721   20.75628       19.287969      1.4683112     -1.3170227      18247.957    
    939000   0.89527533     0.0023323615   0.0037957398   20.40895       19.079466      1.3294839     -1.3226819      18427.611    
    940000   1.0030226      0.0023323615   0.0023721851   20.700135      19.210646      1.4894886     -1.2577565      18365.136    
    941000   0.87289288     0.0023323615   0.003519823    20.561481      19.265235      1.2962459     -1.1981026      18438.593    
    942000   1.1444447      0.0023323615  -0.0042436587   21.073401      19.373901      1.6995003     -1.1493104      18635.379    
    943000   0.91431582     0.0023323615   0.0004751473   20.53716       19.179401      1.357759      -1.3078718      18628.68     
    944000   0.9549857      0.0023323615   0.0022469083   20.885341      19.467188      1.4181538     -1.1370954      18600.654    
    945000   1.0145628      0.0023323615   0.00014211414  20.587192      19.080566      1.5066258     -1.345532       18640.898    
    946000   0.98369618     0.0023323615  -0.0024908152   20.861825      19.401036      1.4607888     -1.2855548      18354.346    
    947000   1.0155295      0.0023323615   0.0017477529   20.518721      19.010659      1.5080613     -1.4770565      18292.51     
    948000   1.1167365      0.0023323615   0.0030412752   20.657112      18.998759      1.6583537     -1.4320453      18336.872    
    949000   0.89842879     0.0023323615   0.00071963565  20.733954      19.399788      1.3341668     -1.1465353      18533.309    
    950000   1.0078644      0.0023323615   0.0055117241   20.955876      19.459198      1.4966786     -1.0841217      18763.692    
    951000   0.96172501     0.0023323615   0.0028227846   20.676568      19.248406      1.4281616     -1.2239206      18807.14     
    952000   1.0435117      0.0023323615  -0.00089591087  20.996818      19.447203      1.5496149     -1.1209847      18763.353    
    953000   0.9956972      0.0023323615  -0.00053771633  20.714162      19.235552      1.4786103     -1.3123962      18726.092    
    954000   0.79838794     0.0023323615   0.00091238167  20.446664      19.261058      1.1856061     -1.2379164      18611.045    
    955000   0.97432076     0.0023323615  -0.0038554814   20.674709      19.227842      1.4468663     -1.3488916      18520.372    
    956000   0.89160817     0.0023323615  -0.00068416038  20.645872      19.321834      1.3240381     -1.1704186      18611.889    
    957000   1.0762139      0.0023323615  -0.0020557223   20.926606      19.328428      1.5981776     -1.205136       18719.956    
    958000   0.89568782     0.0023323615  -0.0014351943   20.718547      19.38845       1.3300964     -1.1878452      18703.585    
    959000   0.8144846      0.0023323615   0.0050095979   20.258167      19.048658      1.2095096     -1.4156719      18527.815    
    960000   1.003079       0.0023323615   0.00017019496  21.006306      19.516734      1.4895724     -1.0692569      18357.728    
    961000   1.0885296      0.0023323615  -0.0023876161   20.969407      19.35294       1.6164664     -1.1796406      18599.476    
    962000   1.0800701      0.0023323615  -0.0046177824   20.780302      19.176398      1.6039041     -1.3718362      18509.68     
    963000   1.0888725      0.0023323615  -0.00019265159  20.940552      19.323576      1.6169756     -1.20215        18598.602    
    964000   0.98627378     0.0023323615   0.0033363365   20.844458      19.379841      1.4646166     -1.2106026      18843.306    
    965000   1.0081151      0.0023323615   0.00059185597  20.781354      19.284303      1.4970509     -1.2101408      18770.35     
    966000   0.99942069     0.0023323615  -0.003612888    20.810732      19.326592      1.4841397     -1.2257824      18656.452    
    967000   0.98573897     0.0023323615   0.00042576907  20.559253      19.095431      1.4638224     -1.4460751      18528.963    
    968000   0.99162698     0.0023323615  -0.00069087094  20.814327      19.341761      1.4725661     -1.2765263      18596.599    
    969000   1.1156491      0.0023323615  -0.0045842729   21.0628        19.406061      1.656739      -1.2025475      18739.86     
    970000   1.079756       0.0023323615   0.0048035706   20.741194      19.137756      1.6034377     -1.3565273      18442.034    
    971000   1.217046       0.0023323615   0.0042372126   20.845094      19.037781      1.8073133     -1.3206695      18414.274    
    972000   1.1053269      0.0023323615  -0.00042370709  21.004004      19.362593      1.6414104     -1.1031795      18482.145    
    973000   1.0837119      0.0023323615  -0.0036510498   20.952567      19.343255      1.6093122     -1.0891432      18784.106    
    974000   1.005129       0.0023323615  -0.0033678624   20.875198      19.382581      1.4926166     -1.132543       18545.878    
    975000   0.98815243     0.0023323615   0.0026731545   20.940132      19.472726      1.4674064     -1.046162       18518.276    
    976000   0.92251898     0.0023323615  -0.003380594    20.697616      19.327676      1.3699407     -1.2243379      18708.552    
    977000   0.96121337     0.0023323615   0.0039976601   20.638247      19.210845      1.4274019     -1.2767951      18536.802    
    978000   1.0020152      0.0023323615  -0.00078490903  20.750768      19.262775      1.4879926     -1.2678407      18421.567    
    979000   1.0660708      0.0023323615  -0.0018867934   20.763163      19.180048      1.5831152     -1.3116863      18415.782    
    980000   1.0354822      0.0023323615  -0.0029332      21.097102      19.559411      1.5376911     -1.0091092      18551.962    
    981000   1.0642457      0.0023323615   0.0011347846   21.135287      19.554882      1.5804048     -1.0415098      18478.524    
    982000   1.1572044      0.0023323615  -0.00351036     21.048363      19.329915      1.7184485     -1.2222072      18533.849    
    983000   0.98184057     0.0023323615  -0.0021080058   20.524531      19.066498      1.4580332     -1.3968654      18396.13     
    984000   0.91457935     0.0023323615  -0.0015541978   20.694213      19.336063      1.3581503     -1.3152435      18390.992    
    985000   0.97882948     0.0023323615   0.000435056    20.861418      19.407856      1.4535618     -1.1999125      18391.978    
    986000   1.0265234      0.0023323615   0.0010040546   20.707969      19.183581      1.5243873     -1.4066355      18509.238    
    987000   1.0571532      0.0023323615  -0.0024796309   20.857352      19.287479      1.5698726     -1.1728561      18531.265    
    988000   0.90863945     0.0023323615   0.0021655042   20.406865      19.057535      1.3493296     -1.3772631      18509.416    
    989000   0.88589277     0.0023323615  -0.0045154477   20.726006      19.410455      1.3155508     -1.1265463      18473.401    
    990000   0.98843414     0.0023323615  -0.0036750815   20.932265      19.464441      1.4678247     -1.2151386      18490.115    
    991000   1.05917        0.0023323615   0.00053121035  20.770911      19.198044      1.5728675     -1.3487775      18446.659    
    992000   1.0050578      0.0023323615  -0.002266849    20.983539      19.491029      1.4925109     -1.1792821      18603.442    
    993000   1.1474762      0.0023323615  -0.00028648837  20.795007      19.091005      1.7040022     -1.4432882      18520.149    
    994000   1.1394487      0.0023323615   0.0033226109   21.028575      19.336494      1.6920814     -1.2240725      18498.693    
    995000   1.0575817      0.0023323615  -0.002464756    21.027749      19.45724       1.5705088     -1.2448673      18477.885    
    996000   0.96776571     0.0023323615  -0.00026989622  20.69597       19.258837      1.4371321     -1.261144       18600.339    
    997000   1.0930039      0.0023323615   0.0022864654   20.737381      19.11427       1.6231108     -1.4493643      18501.261    
    998000   1.0307237      0.0023323615   0.0010419701   20.777308      19.246684      1.5306247     -1.3254266      18536.737    
    999000   0.94063742     0.0023323615  -0.0020164218   20.80079       19.403944      1.3968466     -1.0657339      18568.739    
   1000000   0.97684565     0.0023323615  -0.001682488    20.582463      19.131848      1.4506158     -1.3469764      18652.795    
Loop time of 53.7641 on 1 procs for 1000000 steps with 100 atoms

Performance: 8035099.775 tau/day, 18599.768 timesteps/s
99.4% CPU use with 1 MPI tasks x 1 OpenMP threads

MPI task timing breakdown:
Section |  min time  |  avg time  |  max time  |%varavg| %total
---------------------------------------------------------------
Pair    | 44.767     | 44.767     | 44.767     |   0.0 | 83.27
Bond    | 1.2711     | 1.2711     | 1.2711     |   0.0 |  2.36
Neigh   | 3.8177     | 3.8177     | 3.8177     |   0.0 |  7.10
Comm    | 1.3869     | 1.3869     | 1.3869     |   0.0 |  2.58
Output  | 0.22206    | 0.22206    | 0.22206    |   0.0 |  0.41
Modify  | 1.9482     | 1.9482     | 1.9482     |   0.0 |  3.62
Other   |            | 0.3512     |            |       |  0.65

Nlocal:            100 ave         100 max         100 min
Histogram: 1 0 0 0 0 0 0 0 0 0
Nghost:            294 ave         294 max         294 min
Histogram: 1 0 0 0 0 0 0 0 0 0
Neighs:           4836 ave        4836 max        4836 min
Histogram: 1 0 0 0 0 0 0 0 0 0

Total # of neighbors = 4836
Ave neighs/atom = 48.36
Ave special neighs/atom = 1.98
Neighbor list builds = 97895
Dangerous builds = 80024

write_data      ${outputfile_assembled} nofix nocoeff
write_data      7_assembled.data nofix nocoeff
System init for write_data ...
Generated 0 of 6 mixed pair_coeff terms from geometric mixing rule

Total wall time: 0:00:55
