LAMMPS (23 Jun 2022 - Update 1)
OMP_NUM_THREADS environment is not set. Defaulting to 1 thread. (src/comm.cpp:98)
  using 1 OpenMP thread(s) per MPI task


variable        runtime equal 1000000
variable		subsample_rate equal 1000

variable		outputfile_created string '3_created.data'
variable		outputfile_relaxed string '5_relaxed.data'
variable		outputfile_selfasb string '6_a_self_assemble.lammpstrj'
variable		outputfile_trajlin string '6_b_trajlin.data'
variable		outputfile_assembled string '7_assembled.data'

units           lj
atom_style      full
dimension       3
boundary        p p p
timestep        0.005

read_data       ${outputfile_created}
read_data       3_created.data
Reading data file ...
  orthogonal box = (0 0 0) to (35 35 35)
  1 by 1 by 1 MPI processor grid
  reading atoms ...
  100 atoms
  reading velocities ...
  100 velocities
  scanning bonds ...
  1 = max bonds/atom
  reading bonds ...
  99 bonds
Finding 1-2 1-3 1-4 neighbors ...
  special bond factors lj:    0        0        0       
  special bond factors coul:  0        0        0       
     2 = max # of 1-2 neighbors
     2 = max # of 1-3 neighbors
     4 = max # of 1-4 neighbors
     6 = max # of special neighbors
  special bonds CPU = 0.000 seconds
  read_data CPU = 0.007 seconds

bond_style      fene
bond_coeff      * 30.0 1.5 1.0 1.0
special_bonds   fene
Finding 1-2 1-3 1-4 neighbors ...
  special bond factors lj:    0        1        1       
  special bond factors coul:  0        1        1       
     2 = max # of 1-2 neighbors
     6 = max # of special neighbors
  special bonds CPU = 0.000 seconds

variable        Temp equal 1.0
variable        velSeed equal 926458

velocity        all create ${Temp} ${velSeed}
velocity        all create 1 ${velSeed}
velocity        all create 1 926458

### Output
thermo_style    custom step temp density press etotal pe ke epair spcpu
thermo          1000

###########################################################################
# Soft relaxation (to remove overlaps of particles)
######################################################################

pair_style      soft 1.0
pair_coeff      * * 0.0
variable        prefactor equal ramp(0,300)
fix             rampSoft all adapt 1 pair soft a * * v_prefactor

minimize        0.0 1.0e-8 1000 100000
WARNING: Using 'neigh_modify every 1 delay 0 check yes' setting during minimization (src/min.cpp:187)
Generated 0 of 6 mixed pair_coeff terms from geometric mixing rule
Neighbor list info ...
  update every 1 steps, delay 0 steps, check yes
  max neighbors/atom: 2000, page size: 100000
  master list distance cutoff = 1.3
  ghost atom cutoff = 1.3
  binsize = 0.65, bins = 54 54 54
  1 neighbor lists, perpetual/occasional/extra = 1 0 0
  (1) pair soft, perpetual
      attributes: half, newton on
      pair build: half/bin/newton
      stencil: half/bin/3d
      bin: standard
WARNING: Communication cutoff 1.3 is shorter than a bond length based estimate of 1.7550000000000001. This may lead to errors. (src/comm.cpp:727)
Per MPI rank memory allocation (min/avg/max) = 8.346 | 8.346 | 8.346 Mbytes
   Step          Temp         Density         Press          TotEng         PotEng         KinEng         E_pair         S/CPU     
         0   1              0.0023323615  -0.0039617958   21.524174      20.039174      1.485          0              0            
       362   1              0.0023323615   0.0023090379   21.485548      20.000548      1.485          0              69743.337    
Loop time of 0.00519382 on 1 procs for 362 steps with 100 atoms

99.0% CPU use with 1 MPI tasks x 1 OpenMP threads

Minimization stats:
  Stopping criterion = force tolerance
  Energy initial, next-to-last, final = 
      20.0391741078675   20.0005480767337   20.0005480767337
  Force two-norm initial, final = 11.878422 7.9509778e-09
  Force max component initial, final = 6.6117807 1.3572772e-09
  Final line search alpha, max atom move = 1 1.3572772e-09
  Iterations, force evaluations = 362 738

MPI task timing breakdown:
Section |  min time  |  avg time  |  max time  |%varavg| %total
---------------------------------------------------------------
Pair    | 0.00022499 | 0.00022499 | 0.00022499 |   0.0 |  4.33
Bond    | 0.0023164  | 0.0023164  | 0.0023164  |   0.0 | 44.60
Neigh   | 0.001465   | 0.001465   | 0.001465   |   0.0 | 28.21
Comm    | 0.00018504 | 0.00018504 | 0.00018504 |   0.0 |  3.56
Output  | 0          | 0          | 0          |   0.0 |  0.00
Modify  | 0          | 0          | 0          |   0.0 |  0.00
Other   |            | 0.001002   |            |       | 19.30

Nlocal:            100 ave         100 max         100 min
Histogram: 1 0 0 0 0 0 0 0 0 0
Nghost:             20 ave          20 max          20 min
Histogram: 1 0 0 0 0 0 0 0 0 0
Neighs:              0 ave           0 max           0 min
Histogram: 1 0 0 0 0 0 0 0 0 0

Total # of neighbors = 0
Ave neighs/atom = 0
Ave special neighs/atom = 1.98
Neighbor list builds = 17
Dangerous builds = 0

fix             nvtSoft all nvt temp ${Temp} ${Temp} 0.5
fix             nvtSoft all nvt temp 1 ${Temp} 0.5
fix             nvtSoft all nvt temp 1 1 0.5
run             100000
Generated 0 of 6 mixed pair_coeff terms from geometric mixing rule
WARNING: Communication cutoff 1.3 is shorter than a bond length based estimate of 1.7550000000000001. This may lead to errors. (src/comm.cpp:727)
Per MPI rank memory allocation (min/avg/max) = 7.221 | 7.221 | 7.221 Mbytes
   Step          Temp         Density         Press          TotEng         PotEng         KinEng         E_pair         S/CPU     
       362   1              0.0023323615   0.0023090379   21.485548      20.000548      1.485          0              0            
      1000   0.90989032     0.0023323615  -0.0021940042   21.776974      20.425787      1.3511871      0.00036425437  78526.479    
      2000   0.86546688     0.0023323615   0.0034714157   21.677128      20.39191       1.2852183      0.0025814786   77794.634    
      3000   0.98199538     0.0023323615   0.0028144228   21.866132      20.407869      1.4582631      0.0011756043   73854.376    
      4000   1.004495       0.0023323615  -0.0014058211   21.945624      20.453949      1.4916751      0.011986179    72453.115    
      5000   1.1222705      0.0023323615   0.0044495116   21.986385      20.319813      1.6665718      0.0050317639   74415.293    
      6000   1.0538243      0.0023323615   0.0023957538   21.985713      20.420784      1.564929       0.012100514    74740.711    
      7000   1.0210598      0.0023323615  -0.00038820026  21.904665      20.388391      1.5162738      0              76223.393    
      8000   0.94819751     0.0023323615   0.0024943091   21.747889      20.339816      1.4080733      0              76566.559    
      9000   0.92364502     0.0023323615   0.0020053029   21.724166      20.352554      1.3716129      1.7780894e-05  75246.86     
     10000   0.86685188     0.0023323615   0.00078277366  21.644879      20.357604      1.287275       0.0098636418   75801.575    
     11000   1.0057103      0.0023323615   0.00010113276  21.8558        20.362321      1.4934798      0.020705341    75677.89     
     12000   0.97901664     0.0023323615  -0.0026996968   21.871206      20.417366      1.4538397      0.0052928539   75467.893    
     13000   0.97718436     0.0023323615  -6.1641422e-06  21.963706      20.512587      1.4511188      0.025022446    75275.182    
     14000   1.0530014      0.0023323615  -0.0009993112   21.947994      20.384287      1.5637071      0.0020860456   74710.787    
     15000   0.99094527     0.0023323615   0.0011068478   21.895146      20.423592      1.4715537      0.0015091113   75297.156    
     16000   0.91285091     0.0023323615  -0.00025424173  21.87524       20.519657      1.3555836      0.0047853639   75488.841    
     17000   0.82806978     0.0023323615  -0.00054698156  21.701984      20.472301      1.2296836      0              75619.238    
     18000   1.043278       0.0023323615  -6.6143919e-05  22.003299      20.454031      1.5492679      0.0034319132   76543.662    
     19000   1.0879249      0.0023323615  -0.0017804642   21.998985      20.383416      1.6155685      0.015376175    74935.252    
     20000   1.1144506      0.0023323615   0.0025198298   22.190904      20.535944      1.6549592      0              76049.456    
     21000   1.0427751      0.0023323615   0.0011345349   22.099492      20.550971      1.548521       0.00040047813  76220.076    
     22000   1.0586695      0.0023323615   0.0017882747   22.05673       20.484606      1.5721242      0              74885.949    
     23000   1.0058426      0.0023323615  -0.0055245362   21.954628      20.460951      1.4936763      0.0027619031   75285.626    
     24000   0.98273442     0.0023323615   0.0015147357   21.862067      20.402707      1.4593606      0              75590.201    
     25000   0.95835343     0.0023323615   0.0017808774   21.937761      20.514606      1.4231548      0.00020839942  75403.363    
     26000   0.93993778     0.0023323615  -0.0021777292   21.884849      20.489042      1.3958076      0.0088889834   75929.06     
     27000   0.9308188      0.0023323615  -0.00011239942  21.842252      20.459986      1.3822659      0.021612409    74733.104    
     28000   1.0149581      0.0023323615   0.0041996387   21.906846      20.399633      1.5072129      0.0064059022   75495.578    
     29000   0.92841138     0.0023323615  -2.5398808e-05  21.987185      20.608494      1.3786909      0.0046112484   75393.909    
     30000   1.021043       0.0023323615   0.001589158    22.097958      20.581709      1.5162489      0.016799508    73123.613    
     31000   1.0465985      0.0023323615  -0.0021744286   22.037917      20.483718      1.5541987      0.0057879149   75606.523    
     32000   0.98907108     0.0023323615  -0.0015558606   22.044089      20.575318      1.4687705      0.009448173    75383.542    
     33000   1.0918536      0.0023323615  -0.0025643847   22.039275      20.417873      1.6214025      0              74230.833    
     34000   0.99801543     0.0023323615   0.0016279766   21.932339      20.450286      1.4820529      0.017384617    76838.873    
     35000   1.0352271      0.0023323615  -0.0052971711   22.076004      20.538692      1.5373122      0.00010473809  75559.935    
     36000   1.1141579      0.0023323615  -0.00093279925  22.222491      20.567966      1.6545245      0.00033678641  76737.979    
     37000   1.0369415      0.0023323615   0.00013065175  22.217841      20.677983      1.5398581      0.013788831    75645.197    
     38000   1.0515596      0.0023323615   0.0021717558   22.070766      20.5092        1.561566       0.0067894678   76372        
     39000   1.0238495      0.0023323615   0.00026414509  22.040141      20.519725      1.5204165      0.00044464649  75310.794    
     40000   1.0749111      0.0023323615  -0.0026849368   22.039327      20.443084      1.596243       0.012651334    73295.443    
     41000   0.99070886     0.0023323615  -0.0030385564   22.03241       20.561207      1.4712027      0.00092855646  77004.269    
     42000   0.95315224     0.0023323615   0.0019788197   21.965263      20.549832      1.4154311      0.020233689    75027.687    
     43000   1.0644183      0.0023323615  -0.0011168725   22.287172      20.706511      1.5806611      0.039694129    75031.69     
     44000   1.0253747      0.0023323615  -0.006676522    22.066233      20.543552      1.5226814      0              74399.929    
     45000   0.94179556     0.0023323615  -0.0047206018   21.970644      20.572077      1.3985664      0.019869988    68860.583    
     46000   1.0083495      0.0023323615  -0.0017646918   21.972114      20.474715      1.497399       0.00026040605  74726.721    
     47000   0.98767959     0.0023323615  -0.00080218158  22.091674      20.62497       1.4667042      0.024266258    75061.883    
     48000   1.1473449      0.0023323615  -0.0025885687   22.080512      20.376705      1.7038072      0.00065962995  75560.614    
     49000   1.0679312      0.0023323615   0.0017688272   21.970482      20.384604      1.5858779      0.014142422    76657.118    
     50000   0.9581935      0.0023323615   0.0014398836   21.955202      20.532284      1.4229173      0.0055011948   76032.421    
     51000   1.0215759      0.0023323615  -0.00093292688  21.934681      20.41764       1.5170402      0              75516.889    
     52000   0.98079591     0.0023323615   0.0040701936   21.977374      20.520892      1.4564819      0.0020862422   76247.152    
     53000   1.0090927      0.0023323615   0.0013324753   22.095438      20.596935      1.4985027      0              75400.224    
     54000   0.97519627     0.0023323615   0.0013260734   22.070151      20.621984      1.4481665      0.026885444    76482.426    
     55000   1.1805087      0.0023323615  -0.001586238    22.424088      20.671033      1.7530554      0.024690954    76038.619    
     56000   0.98387121     0.0023323615   0.0037155145   22.104425      20.643376      1.4610487      0.01435493     75809.982    
     57000   1.0723812      0.0023323615  -0.0037916262   22.122726      20.53024       1.592486       0.013635549    76171.969    
     58000   1.0152349      0.0023323615   0.00021908047  22.082827      20.575203      1.5076238      0.00077375639  76158.197    
     59000   1.1424502      0.0023323615  -0.0052108657   22.30072       20.604182      1.6965385      0.013308184    76928.42     
     60000   1.0359703      0.0023323615  -0.00097887545  22.188218      20.649802      1.538416       0.00011346294  75145.854    
     61000   1.1646839      0.0023323615  -0.002085017    22.239945      20.51039       1.7295556      0.012918477    77565.035    
     62000   1.101836       0.0023323615   0.0010338878   22.171386      20.53516       1.6362265      0.001396566    76245.983    
     63000   0.96616435     0.0023323615   0.00097550571  21.903821      20.469067      1.4347541      0.013027663    77526.417    
     64000   1.0068907      0.0023323615  -0.0020278726   22.061652      20.566419      1.4952327      0.013750276    76166.329    
     65000   0.98723233     0.0023323615   0.0022441476   22.031073      20.565033      1.46604        0.0066686189   76574.258    
     66000   1.0273881      0.0023323615  -0.0003515278   22.183579      20.657908      1.5256713      0              74781.306    
     67000   0.96528212     0.0023323615  -0.00014822656  21.9396        20.506156      1.4334439      0.010365557    76673.317    
     68000   1.069702       0.0023323615   9.4754668e-05  22.081119      20.492611      1.5885075      0.00049153926  73701.244    
     69000   1.1229502      0.0023323615   0.0011504079   22.200329      20.532748      1.6675811      0.0068454249   76673.957    
     70000   1.0062775      0.0023323615  -0.00085311964  22.094021      20.599699      1.4943221      0.013222355    74791.507    
     71000   1.0906935      0.0023323615   0.00015260357  22.145362      20.525682      1.6196798      0.018338513    75953.449    
     72000   1.010401       0.0023323615  -6.0487182e-06  22.154105      20.653659      1.5004455      0.0013793953   74378.193    
     73000   1.1177599      0.0023323615  -0.0034084797   22.254435      20.594562      1.6598735      0.00011231735  77124.401    
     74000   0.9768019      0.0023323615   0.00016143893  22.07312       20.622569      1.4505508      0.0084515956   75439.945    
     75000   1.1360996      0.0023323615   0.002159116    22.161595      20.474487      1.6871079      0.0089909162   76122.537    
     76000   0.97379329     0.0023323615  -0.00068458621  21.988928      20.542845      1.446083       0              75112.772    
     77000   0.94876793     0.0023323615  -0.0016073976   21.923496      20.514575      1.4089204      0.017745108    75380.581    
     78000   0.83947996     0.0023323615  -0.00062768559  21.726727      20.480099      1.2466277      0.0054510099   75858.951    
     79000   1.0090614      0.0023323615  -0.00080262643  22.068192      20.569736      1.4984562      0.00023011166  76736.324    
     80000   1.1217643      0.0023323615  -0.0038177864   22.367902      20.702082      1.66582        0.032902439    76186.041    
     81000   1.0240158      0.0023323615   0.00023547123  22.031597      20.510933      1.5206635      0.0068767308   75401.703    
     82000   1.003236       0.0023323615  -0.0022802982   21.894199      20.404393      1.4898055      0.019136282    74150.652    
     83000   1.0554159      0.0023323615   0.004011718    22.104562      20.537269      1.5672927      0.0080869707   74286.859    
     84000   0.83527346     0.0023323615  -0.0034122221   21.874648      20.634267      1.2403811      0.0030083664   75564.965    
     85000   1.036002       0.0023323615   0.0013573923   21.962923      20.42446       1.5384629      0.015709144    76096.939    
     86000   0.9432002      0.0023323615  -0.0032183248   21.913588      20.512936      1.4006523      0.013730309    76028.369    
     87000   0.95566008     0.0023323615  -0.00049614223  21.91653       20.497375      1.4191552      0.0035862035   75190.915    
     88000   0.93373351     0.0023323615  -0.00097093893  21.870485      20.483891      1.3865943      0.0018212145   74857.808    
     89000   0.9684944      0.0023323615  -0.00047342045  21.973429      20.535215      1.4382142      0.00087524744  75144.838    
     90000   0.98293324     0.0023323615  -0.0032204602   22.050919      20.591263      1.4596559      0.015353933    76539.321    
     91000   1.0832827      0.0023323615   0.0048517083   22.11977       20.511095      1.6086749      0.0052867789   77225.838    
     92000   0.85899662     0.0023323615  -0.0013049519   21.765697      20.490087      1.27561        0.0024124001   76407.724    
     93000   0.96176266     0.0023323615  -4.4223672e-05  21.874222      20.446004      1.4282176      0.0045653365   76904.472    
     94000   0.96019503     0.0023323615   0.00024459347  21.944954      20.519064      1.4258896      3.8053462e-05  76494.326    
     95000   0.94702149     0.0023323615  -0.0033658915   21.86315       20.456823      1.4063269      0              77036.124    
     96000   0.91119348     0.0023323615  -0.0013197298   21.825018      20.471896      1.3531223      0.00043282989  75648.979    
     97000   1.0016687      0.0023323615  -0.0019514304   22.013024      20.525546      1.487478       0.0048369955   75280.463    
     98000   1.02143        0.0023323615  -0.0057874974   22.177965      20.661142      1.5168235      0              74234.591    
     99000   1.032786       0.0023323615   0.0018228259   21.975336      20.441649      1.5336871      7.1595851e-05  77507.087    
    100000   1.0594928      0.0023323615   0.0036169719   22.011024      20.437677      1.5733468      0.00032948157  75715.783    
    100362   1.1904942      0.0023323615  -0.00089755607  22.316856      20.548972      1.7678839      0.00063845255  75257.231    
Loop time of 1.32319 on 1 procs for 100000 steps with 100 atoms

Performance: 32648338.049 tau/day, 75574.857 timesteps/s
99.2% CPU use with 1 MPI tasks x 1 OpenMP threads

MPI task timing breakdown:
Section |  min time  |  avg time  |  max time  |%varavg| %total
---------------------------------------------------------------
Pair    | 0.049673   | 0.049673   | 0.049673   |   0.0 |  3.75
Bond    | 0.12586    | 0.12586    | 0.12586    |   0.0 |  9.51
Neigh   | 0.80609    | 0.80609    | 0.80609    |   0.0 | 60.92
Comm    | 0.056151   | 0.056151   | 0.056151   |   0.0 |  4.24
Output  | 0.0011022  | 0.0011022  | 0.0011022  |   0.0 |  0.08
Modify  | 0.24985    | 0.24985    | 0.24985    |   0.0 | 18.88
Other   |            | 0.03446    |            |       |  2.60

Nlocal:            100 ave         100 max         100 min
Histogram: 1 0 0 0 0 0 0 0 0 0
Nghost:             60 ave          60 max          60 min
Histogram: 1 0 0 0 0 0 0 0 0 0
Neighs:             36 ave          36 max          36 min
Histogram: 1 0 0 0 0 0 0 0 0 0

Total # of neighbors = 36
Ave neighs/atom = 0.36
Ave special neighs/atom = 1.98
Neighbor list builds = 9821
Dangerous builds = 8265
unfix           nvtSoft
unfix           rampSoft
reset_timestep  0

write_data      ${outputfile_relaxed}
write_data      5_relaxed.data
System init for write_data ...
Generated 0 of 6 mixed pair_coeff terms from geometric mixing rule
WARNING: Communication cutoff 1.3 is shorter than a bond length based estimate of 1.7550000000000001. This may lead to errors. (src/comm.cpp:727)
WARNING: Not all mixed pair coeffs generated from mixing. Use write_data with 'pair ij' option to store all pair coeffs. (src/write_data.cpp:309)

###########################################################################
# Full LJ with Coulomb
######################################################################

# Cutoffs and parameters:
# - Values: Marcel Verkade's Bachelor Thesis
# - Mapping to atom groups: Patrick Onck's paper
# - 1: aliphatic, 2: aromatic, 3: anion, 4: cation
# pair_style	lj/cut/coul/cut <lj_cut_global> <coul_cut_global>
# pair_coeff	<type_1>  <type_2>  <eps>  <sigma>  <r_cut_lj>  <r_cut_coul>

# Problem: Onck's model is much more complex, and Marcel has no sigma reported
# Using sigma=1 randomly

variable		glob_ljeps equal 1.0
variable		glob_ljsig 	equal 1.0
variable		glob_coulcut equal 10.0
variable		att_ljcut equal 2.50
variable		rep_ljcut equal 1.12

pair_style		lj/cut/coul/cut 						${att_ljcut} 	${glob_coulcut}
pair_style		lj/cut/coul/cut 						2.5 	${glob_coulcut}
pair_style		lj/cut/coul/cut 						2.5 	10
pair_coeff		1 1 	${glob_ljeps} 	${glob_ljsig}	${att_ljcut} 	${glob_coulcut}
pair_coeff		1 1 	1 	${glob_ljsig}	${att_ljcut} 	${glob_coulcut}
pair_coeff		1 1 	1 	1	${att_ljcut} 	${glob_coulcut}
pair_coeff		1 1 	1 	1	2.5 	${glob_coulcut}
pair_coeff		1 1 	1 	1	2.5 	10
pair_coeff		1 2 	${glob_ljeps} 	${glob_ljsig}	${att_ljcut} 	${glob_coulcut}
pair_coeff		1 2 	1 	${glob_ljsig}	${att_ljcut} 	${glob_coulcut}
pair_coeff		1 2 	1 	1	${att_ljcut} 	${glob_coulcut}
pair_coeff		1 2 	1 	1	2.5 	${glob_coulcut}
pair_coeff		1 2 	1 	1	2.5 	10
pair_coeff		1 3 	${glob_ljeps} 	${glob_ljsig}	${rep_ljcut} 	${glob_coulcut}
pair_coeff		1 3 	1 	${glob_ljsig}	${rep_ljcut} 	${glob_coulcut}
pair_coeff		1 3 	1 	1	${rep_ljcut} 	${glob_coulcut}
pair_coeff		1 3 	1 	1	1.12 	${glob_coulcut}
pair_coeff		1 3 	1 	1	1.12 	10
pair_coeff		1 4 	${glob_ljeps} 	${glob_ljsig}	${rep_ljcut} 	${glob_coulcut}
pair_coeff		1 4 	1 	${glob_ljsig}	${rep_ljcut} 	${glob_coulcut}
pair_coeff		1 4 	1 	1	${rep_ljcut} 	${glob_coulcut}
pair_coeff		1 4 	1 	1	1.12 	${glob_coulcut}
pair_coeff		1 4 	1 	1	1.12 	10
pair_coeff		2 2 	${glob_ljeps} 	${glob_ljsig}	${att_ljcut} 	${glob_coulcut}
pair_coeff		2 2 	1 	${glob_ljsig}	${att_ljcut} 	${glob_coulcut}
pair_coeff		2 2 	1 	1	${att_ljcut} 	${glob_coulcut}
pair_coeff		2 2 	1 	1	2.5 	${glob_coulcut}
pair_coeff		2 2 	1 	1	2.5 	10
pair_coeff		2 3 	${glob_ljeps} 	${glob_ljsig}	${rep_ljcut} 	${glob_coulcut}
pair_coeff		2 3 	1 	${glob_ljsig}	${rep_ljcut} 	${glob_coulcut}
pair_coeff		2 3 	1 	1	${rep_ljcut} 	${glob_coulcut}
pair_coeff		2 3 	1 	1	1.12 	${glob_coulcut}
pair_coeff		2 3 	1 	1	1.12 	10
pair_coeff		2 4 	${glob_ljeps} 	${glob_ljsig}	${att_ljcut} 	${glob_coulcut}
pair_coeff		2 4 	1 	${glob_ljsig}	${att_ljcut} 	${glob_coulcut}
pair_coeff		2 4 	1 	1	${att_ljcut} 	${glob_coulcut}
pair_coeff		2 4 	1 	1	2.5 	${glob_coulcut}
pair_coeff		2 4 	1 	1	2.5 	10
pair_coeff		3 3 	${glob_ljeps} 	${glob_ljsig}	${rep_ljcut} 	${glob_coulcut}
pair_coeff		3 3 	1 	${glob_ljsig}	${rep_ljcut} 	${glob_coulcut}
pair_coeff		3 3 	1 	1	${rep_ljcut} 	${glob_coulcut}
pair_coeff		3 3 	1 	1	1.12 	${glob_coulcut}
pair_coeff		3 3 	1 	1	1.12 	10
pair_coeff		3 4 	${glob_ljeps} 	${glob_ljsig}	${att_ljcut} 	${glob_coulcut}
pair_coeff		3 4 	1 	${glob_ljsig}	${att_ljcut} 	${glob_coulcut}
pair_coeff		3 4 	1 	1	${att_ljcut} 	${glob_coulcut}
pair_coeff		3 4 	1 	1	2.5 	${glob_coulcut}
pair_coeff		3 4 	1 	1	2.5 	10
pair_coeff		4 4 	${glob_ljeps} 	${glob_ljsig}	${rep_ljcut} 	${glob_coulcut}
pair_coeff		4 4 	1 	${glob_ljsig}	${rep_ljcut} 	${glob_coulcut}
pair_coeff		4 4 	1 	1	${rep_ljcut} 	${glob_coulcut}
pair_coeff		4 4 	1 	1	1.12 	${glob_coulcut}
pair_coeff		4 4 	1 	1	1.12 	10


fix             noDriftRot 	all momentum 10 linear 1 1 1 angular
fix             nvt1 		all nvt temp ${Temp} ${Temp} 0.5
fix             nvt1 		all nvt temp 1 ${Temp} 0.5
fix             nvt1 		all nvt temp 1 1 0.5

# dump          assemble 	all custom 1000 				${outputfile_selfasb} id type xu yu zu vx vy vz
dump            lindump 	all custom ${subsample_rate} 	${outputfile_trajlin} id type xu yu zu vx vy vz
dump            lindump 	all custom 1000 	${outputfile_trajlin} id type xu yu zu vx vy vz
dump            lindump 	all custom 1000 	6_b_trajlin.data id type xu yu zu vx vy vz

run             ${runtime}
run             1000000
Generated 0 of 6 mixed pair_coeff terms from geometric mixing rule
Neighbor list info ...
  update every 1 steps, delay 10 steps, check yes
  max neighbors/atom: 2000, page size: 100000
  master list distance cutoff = 10.3
  ghost atom cutoff = 10.3
  binsize = 5.15, bins = 7 7 7
  1 neighbor lists, perpetual/occasional/extra = 1 0 0
  (1) pair lj/cut/coul/cut, perpetual
      attributes: half, newton on
      pair build: half/bin/newton
      stencil: half/bin/3d
      bin: standard
Per MPI rank memory allocation (min/avg/max) = 7.712 | 7.712 | 7.712 Mbytes
   Step          Temp         Density         Press          TotEng         PotEng         KinEng         E_pair         S/CPU     
         0   1.1904942      0.0023323615  -0.0015035747   21.878189      20.110305      1.7678839     -0.43802897     0            
      1000   0.97375067     0.0023323615  -6.3943792e-05  21.134489      19.68847       1.4460197     -0.75193647     33568.315    
      2000   0.92702137     0.0023323615  -0.00059186338  20.928898      19.552271      1.3766267     -1.0466972      30700.808    
      3000   0.90915073     0.0023323615  -0.00027197816  20.57771       19.227621      1.3500888     -1.2497297      26458.09     
      4000   1.0097953      0.0023323615  -0.0035161201   20.634594      19.135048      1.499546      -1.3560398      20621.437    
      5000   0.95178403     0.0023323615  -0.0011605281   20.274157      18.860757      1.4133993     -1.5045158      18705.775    
      6000   0.97085501     0.0023323615   0.0001446353   20.364345      18.922625      1.4417197     -1.5402467      18378.476    
      7000   0.9978217      0.0023323615  -0.0013656414   20.342482      18.860717      1.4817652     -1.668062       18257.925    
      8000   1.0028884      0.0023323615  -0.00042423818  20.366789      18.877499      1.4892893     -1.5489367      18296.181    
      9000   0.91811339     0.0023323615  -0.0010992256   20.223353      18.859954      1.3633984     -1.6665486      18167.933    
     10000   1.0342959      0.0023323615  -0.0031784886   20.542941      19.007011      1.5359294     -1.4727657      18471.682    
     11000   1.045306       0.0023323615  -0.0038162546   20.375439      18.823159      1.5522793     -1.6107335      18506.825    
     12000   0.98167263     0.0023323615  -0.00036535454  20.395984      18.9382        1.4577839     -1.5375414      18480.882    
     13000   1.0997012      0.0023323615  -0.0032054353   20.517555      18.884499      1.6330562     -1.7259252      18418.165    
     14000   0.93790531     0.0023323615  -0.00048916661  20.334994      18.942205      1.3927894     -1.5823895      18565.52     
     15000   1.051677       0.0023323615  -0.002304677    20.882356      19.320615      1.5617404     -1.3600595      18759.305    
     16000   1.0262795      0.0023323615  -0.0040197135   20.77907       19.255045      1.5240251     -1.409796       18444.917    
     17000   0.85588564     0.0023323615  -0.0018092246   20.387886      19.116896      1.2709902     -1.6237767      18387.797    
     18000   0.98230446     0.0023323615   0.0017896835   20.470407      19.011685      1.4587221     -1.599269       18366.849    
     19000   0.84005674     0.0023323615   0.0040927601   20.14939       18.901906      1.2474843     -1.6276208      18429.883    
     20000   1.0634127      0.0023323615   0.004788304    20.494276      18.915108      1.5791678     -1.5901036      18385.375    
     21000   0.91042349     0.0023323615   0.0036197463   19.974748      18.622769      1.3519789     -1.8702355      18338.534    
     22000   0.93389159     0.0023323615   0.0039320215   20.12808       18.741251      1.386829      -1.7537339      18372.82     
     23000   0.94319536     0.0023323615  -0.0013346894   20.495861      19.095216      1.4006451     -1.4435593      18332.134    
     24000   1.169273       0.0023323615   0.0018144585   20.667181      18.93081       1.7363705     -1.6390616      18362.652    
     25000   1.0215862      0.0023323615   0.0020587735   20.292615      18.775559      1.5170556     -1.7949287      18342.47     
     26000   0.89219121     0.0023323615   0.001129758    20.444219      19.119315      1.3249039     -1.4593663      18317.237    
     27000   0.98365565     0.0023323615   0.0025637318   20.41906       18.958331      1.4607286     -1.5649194      18270.889    
     28000   0.97207962     0.0023323615   0.0032020112   20.164233      18.720694      1.4435382     -1.7573358      18215.398    
     29000   0.93926881     0.0023323615   0.0016177407   20.106118      18.711304      1.3948142     -1.810215       18250.807    
     30000   0.87768756     0.0023323615   0.0025612613   19.988006      18.68464       1.303366      -1.7266053      18235.366    
     31000   0.98739921     0.0023323615   0.0007962935   20.391877      18.925589      1.4662878     -1.6517431      18476.072    
     32000   1.0858634      0.0023323615   1.5441071e-05  20.372302      18.759795      1.6125071     -1.6779948      18578.299    
     33000   0.99098278     0.0023323615   8.2180442e-05  20.331952      18.860343      1.4716094     -1.7846072      18487.197    
     34000   1.0888033      0.0023323615  -0.0002929884   20.33033       18.713457      1.6168729     -1.7207811      18474.793    
     35000   0.90265015     0.0023323615   0.0029710073   20.164138      18.823702      1.3404355     -1.6524863      18376.737    
     36000   0.97177405     0.0023323615  -0.0012166822   20.189153      18.746068      1.4430845     -1.8385944      18334.905    
     37000   0.92688509     0.0023323615  -9.4658841e-06  20.212569      18.836145      1.3764244     -1.7767572      18157.162    
     38000   0.89262743     0.0023323615   0.0022903811   20.147288      18.821736      1.3255517     -1.7902161      18213.74     
     39000   0.91164433     0.0023323615  -0.0029871526   20.503129      19.149337      1.3537918     -1.4820775      18318.061    
     40000   1.1500991      0.0023323615  -0.0050967454   20.795014      19.087117      1.7078972     -1.4193023      18369.698    
     41000   0.95500092     0.0023323615  -0.00022191032  20.63698       19.218804      1.4181764     -1.3729002      18423.07     
     42000   0.90466655     0.0023323615  -0.0011517444   20.670204      19.326774      1.3434298     -1.1873626      18574.98     
     43000   0.94031245     0.0023323615   0.0014850606   20.636519      19.240155      1.396364      -1.2653795      18755.156    
     44000   1.0142818      0.0023323615   0.00052121998  20.53076       19.024552      1.5062084     -1.3491211      18512.605    
     45000   1.0710307      0.0023323615   0.00053259557  20.68906       19.09858       1.5904805     -1.4801378      18509.049    
     46000   0.96911993     0.0023323615   0.001912741    20.453808      19.014665      1.4391431     -1.518975       18644.359    
     47000   0.88554178     0.0023323615  -0.0018251851   20.32368       19.00865       1.3150295     -1.5572114      18376.564    
     48000   0.98345528     0.0023323615  -0.0023158482   20.362292      18.901861      1.4604311     -1.6536155      18264.386    
     49000   1.0254699      0.0023323615   0.0030573743   20.595541      19.072718      1.5228229     -1.3803996      18317.476    
     50000   1.0923983      0.0023323615   0.00011133634  20.595791      18.97358       1.6222115     -1.5518443      18553.848    
     51000   0.94415224     0.0023323615   0.0013862886   20.414027      19.011961      1.4020661     -1.550845       18260.092    
     52000   0.94010292     0.0023323615   0.0012598687   20.289878      18.893825      1.3960528     -1.5396845      18300.898    
     53000   1.0070187      0.0023323615  -0.00025206524  20.614363      19.118941      1.4954228     -1.5813053      18456.23     
     54000   0.92177505     0.0023323615   0.0014126622   20.344968      18.976132      1.368836      -1.5389891      18405.907    
     55000   0.93794022     0.0023323615  -0.0013915288   20.347373      18.954532      1.3928412     -1.5778066      18227.38     
     56000   1.1161533      0.0023323615   0.0025298016   20.50305       18.845562      1.6574877     -1.6687015      18263.386    
     57000   0.92002108     0.0023323615   0.00093097642  20.06898       18.702749      1.3662313     -1.7104659      18367.245    
     58000   0.91177635     0.0023323615   0.0063761127   20.276674      18.922686      1.3539879     -1.5497365      18348.111    
     59000   1.05681        0.0023323615  -7.3363877e-05  20.622139      19.052776      1.5693629     -1.5067857      18460.305    
     60000   0.90983553     0.0023323615   0.0007742957   20.26181       18.910704      1.3511058     -1.5776984      18543.611    
     61000   1.0420284      0.0023323615  -0.0012683019   20.3928        18.845388      1.5474121     -1.623418       18530.484    
     62000   1.0007055      0.0023323615   0.0028663996   20.491262      19.005215      1.4860476     -1.5592323      18136.229    
     63000   1.128725       0.0023323615   0.0029774131   20.622294      18.946137      1.6761567     -1.6127385      18266.054    
     64000   1.1090697      0.0023323615  -0.0015166334   20.433273      18.786304      1.6469685     -1.6220931      18315.402    
     65000   0.96128623     0.0023323615  -0.0034250825   20.464401      19.036891      1.4275101     -1.4905229      18415.317    
     66000   0.97005513     0.0023323615  -0.0035190029   20.630689      19.190157      1.4405319     -1.4458534      18361.453    
     67000   1.0178885      0.0023323615  -0.0023369015   20.407762      18.896197      1.5115644     -1.5460535      18346.03     
     68000   0.94588143     0.0023323615  -0.00022593739  20.535772      19.131138      1.4046339     -1.2664019      18312.626    
     69000   1.2911624      0.0023323615   0.00098984066  21.316946      19.39957       1.9173762     -1.239083       18518.612    
     70000   0.88040045     0.0023323615  -0.0011960701   20.657346      19.349951      1.3073947     -1.1251382      18566.428    
     71000   0.93997338     0.0023323615  -0.0017435376   20.514786      19.118925      1.3958605     -1.322815       18645.627    
     72000   0.91264885     0.0023323615   0.0021973649   20.402605      19.047322      1.3552835     -1.4544561      18790.004    
     73000   1.0874749      0.0023323615   0.002392731    20.585947      18.971046      1.6149003     -1.4823742      18681.53     
     74000   1.0861321      0.0023323615  -0.0017559463   20.420992      18.808086      1.6129061     -1.6725114      18647.087    
     75000   1.0806056      0.0023323615   0.000494706    20.752608      19.147908      1.6046994     -1.5551677      18535.983    
     76000   0.95201973     0.0023323615   0.0012354966   20.320081      18.906332      1.4137493     -1.6370265      18201.48     
     77000   1.0397045      0.0023323615  -0.0054843493   20.430151      18.88619       1.5439612     -1.6486488      18245.776    
     78000   1.2409409      0.0023323615   0.0012562908   20.936928      19.094131      1.8427972     -1.5124508      18256.729    
     79000   0.92921639     0.0023323615   0.004726326    20.468997      19.089111      1.3798863     -1.4078923      18123.807    
     80000   1.1141624      0.0023323615   0.0047731497   20.492662      18.838131      1.6545312     -1.5480628      18259.785    
     81000   1.1448647      0.0023323615  -0.00055597149  20.610633      18.910509      1.7001241     -1.539229       18433.362    
     82000   1.0013184      0.0023323615   0.0039498127   20.490047      19.003089      1.4869579     -1.4599255      18270.618    
     83000   1.0307267      0.0023323615   0.0010196617   20.293806      18.763177      1.5306292     -1.6488597      18277.771    
     84000   0.99253191     0.0023323615   0.003919926    20.388476      18.914566      1.4739099     -1.6557893      18245.506    
     85000   0.87649257     0.0023323615  -0.0012382678   20.147653      18.846062      1.3015915     -1.639251       18160.842    
     86000   0.98775868     0.0023323615  -5.4676096e-06  20.440734      18.973913      1.4668216     -1.4911554      18189.158    
     87000   0.90473554     0.0023323615  -0.0018575418   20.250701      18.907169      1.3435323     -1.6159097      18175.919    
     88000   1.123704       0.0023323615   0.00046995429  20.389469      18.720768      1.6687004     -1.7109782      18246.436    
     89000   0.9552124      0.0023323615   0.00044431453  20.44329       19.0248        1.4184904     -1.5603856      18284.437    
     90000   1.002506       0.0023323615   0.0027904342   20.15888       18.670159      1.4887213     -1.8410523      18395.785    
     91000   0.95972803     0.0023323615   0.00037424135  20.32544       18.900244      1.4251961     -1.5713113      18320.667    
     92000   1.037548       0.0023323615  -0.0015713144   20.448523      18.907764      1.5407587     -1.5768581      18370.358    
     93000   1.0787007      0.0023323615  -0.00013846922  20.715209      19.113338      1.6018706     -1.4042043      18465.333    
     94000   0.89898075     0.0023323615   0.0066615554   20.534782      19.199795      1.3349864     -1.4174533      18607.325    
     95000   1.0823123      0.0023323615   0.0009615022   20.46543       18.858196      1.6072338     -1.5882255      18551.687    
     96000   1.0130917      0.0023323615   0.0041431397   20.794892      19.290451      1.5044412     -1.353589       18447.426    
     97000   0.92375983     0.0023323615  -0.0019103974   20.269544      18.897761      1.3717833     -1.6346841      18423.89     
     98000   1.0403488      0.0023323615   0.0012837972   20.576801      19.031883      1.544918      -1.4796275      18538.073    
     99000   0.95813411     0.0023323615   0.002554802    20.394835      18.972006      1.4228292     -1.4621233      18375.299    
    100000   0.80595356     0.0023323615   0.00025071279  20.542164      19.345323      1.196841      -1.2395651      18461.452    
    101000   0.99250182     0.0023323615   0.0026628715   20.452112      18.978247      1.4738652     -1.5583441      18208.391    
    102000   1.0400905      0.0023323615  -0.0021377195   20.702482      19.157947      1.5445344     -1.3890634      18148.294    
    103000   0.94083264     0.0023323615  -0.0032004884   20.486095      19.088958      1.3971365     -1.4385629      18271.092    
    104000   0.9247942      0.0023323615   0.00052030537  20.13284       18.759521      1.3733194     -1.7113106      18215.236    
    105000   1.1107182      0.0023323615   0.00043990424  20.520393      18.870977      1.6494165     -1.5757652      18325.544    
    106000   1.0402887      0.0023323615   0.0017825214   20.717237      19.172409      1.5448286     -1.4098886      18344.361    
    107000   1.0580892      0.0023323615  -0.0014811693   20.669001      19.097738      1.5712624     -1.4597765      18392.385    
    108000   1.0523629      0.0023323615   0.002393574    20.452995      18.890236      1.5627589     -1.6478392      18324.195    
    109000   0.94403028     0.0023323615  -0.0031408395   20.249347      18.847462      1.401885      -1.5936291      18353.333    
    110000   0.96212827     0.0023323615   7.1090182e-05  20.666043      19.237282      1.4287605     -1.3687259      18241.031    
    111000   0.91023638     0.0023323615   3.8421273e-05  20.375806      19.024105      1.351701      -1.4867308      18367.954    
    112000   0.98312306     0.0023323615  -0.001033186    20.439153      18.979216      1.4599377     -1.4655725      18496.783    
    113000   0.92534186     0.0023323615  -0.0031164755   20.359631      18.985499      1.3741327     -1.4120971      18615.894    
    114000   0.91981892     0.0023323615   0.0011565449   20.534354      19.168423      1.3659311     -1.3426484      18621.611    
    115000   0.97643979     0.0023323615   0.0022034617   20.091974      18.641961      1.4500131     -1.8153012      18354.467    
    116000   0.98213348     0.0023323615   0.0014497861   20.472522      19.014053      1.4584682     -1.5625334      18408.708    
    117000   1.0328623      0.0023323615   2.0428498e-05  20.383481      18.849681      1.5338006     -1.5879054      18369.252    
    118000   1.0246384      0.0023323615  -0.0052914652   20.604943      19.083355      1.521588      -1.6416291      18425.607    
    119000   1.1249817      0.0023323615  -0.0012613709   20.503434      18.832836      1.6705978     -1.7866651      18393.676    
    120000   1.0330484      0.0023323615   0.0056302881   20.521105      18.987028      1.5340769     -1.5456484      18390.717    
    121000   0.95991214     0.0023323615  -0.003201966    20.492831      19.067361      1.4254695     -1.5522582      18228.336    
    122000   0.88822756     0.0023323615  -0.0042562159   20.381797      19.062779      1.3190179     -1.4112664      18465.978    
    123000   1.0507752      0.0023323615   0.003305769    20.453366      18.892964      1.5604012     -1.6144073      18323.929    
    124000   0.91581153     0.0023323615  -0.00029120308  20.153912      18.793931      1.3599801     -1.7889491      18341.516    
    125000   0.95646673     0.0023323615   0.00034420207  20.416399      18.996046      1.4203531     -1.6053483      18462.088    
    126000   0.92743789     0.0023323615   0.00035398566  20.449414      19.072169      1.3772453     -1.4638145      18505.209    
    127000   1.2475033      0.0023323615  -0.0010461398   21.151927      19.299385      1.8525424     -1.2907319      18485.088    
    128000   0.99642108     0.0023323615  -0.00074534438  20.579586      19.0999        1.4796853     -1.3530706      18503.531    
    129000   0.95556875     0.0023323615  -0.00043187543  20.302269      18.88325       1.4190196     -1.6651786      18571.005    
    130000   1.0440404      0.0023323615   0.0090878231   20.339149      18.788749      1.5504        -1.6883177      18452.395    
    131000   1.0784728      0.0023323615  -0.00070021179  20.423977      18.822444      1.6015321     -1.5706294      18143.847    
    132000   1.0259248      0.0023323615   0.0011267549   20.3726        18.849102      1.5234983     -1.5991263      18206.597    
    133000   0.98669077     0.0023323615  -0.0026764652   20.410963      18.945727      1.4652358     -1.550842       18444.688    
    134000   1.0062704      0.0023323615  -0.0021428372   20.77885       19.284538      1.4943115     -1.3707032      18416.285    
    135000   0.95096722     0.0023323615   0.0023652654   20.585396      19.17321       1.4121863     -1.3926573      18477.905    
    136000   1.014374       0.0023323615  -0.0027252856   20.657895      19.15155       1.5063455     -1.5259735      18499.587    
    137000   1.0011656      0.0023323615   0.0003149912   20.406855      18.920124      1.486731      -1.597536       18375.803    
    138000   0.96214519     0.0023323615  -0.002964978    20.25144       18.822654      1.4287856     -1.6470734      18329.239    
    139000   0.88877485     0.0023323615   0.00013056603  20.299526      18.979695      1.3198307     -1.4907607      18321.655    
    140000   1.0837005      0.0023323615  -0.0024857806   20.429771      18.820476      1.6092952     -1.7042772      18285.921    
    141000   1.104663       0.0023323615  -0.0010768213   20.469774      18.82935       1.6404245     -1.6840334      18207.228    
    142000   1.1013664      0.0023323615   0.0018332324   20.278011      18.642481      1.6355291     -1.8208175      18053.067    
    143000   0.99058063     0.0023323615  -0.00072107843  20.328009      18.856997      1.4710122     -1.5390161      18104.425    
    144000   1.2548435      0.0023323615   0.0016868258   20.804863      18.94142       1.8634426     -1.5502938      18238.751    
    145000   1.0421494      0.0023323615   0.0047381857   20.425317      18.877725      1.5475919     -1.6379367      18240.204    
    146000   1.0303205      0.0023323615   0.00088624624  20.484597      18.954571      1.5300259     -1.4376144      18384.661    
    147000   1.1501178      0.0023323615  -0.00044155475  21.013995      19.30607       1.707925      -1.208876       18514.827    
    148000   0.98542369     0.0023323615  -0.0018691591   20.5888        19.125446      1.4633542     -1.3515592      18540.28     
    149000   0.95176344     0.0023323615   0.0020539118   20.462284      19.048915      1.4133687     -1.3365506      18521.355    
    150000   0.92106799     0.0023323615  -0.0014129765   20.430973      19.063187      1.367786      -1.4973606      18559.472    
    151000   0.87197964     0.0023323615  -0.001212503    20.491279      19.196389      1.2948898     -1.4387622      18525.047    
    152000   1.0762226      0.0023323615  -0.001488192    20.689208      19.091017      1.5981906     -1.4652844      18526.773    
    153000   0.91415597     0.0023323615   0.007259659    20.290606      18.933085      1.3575216     -1.7044363      18299.221    
    154000   1.1699967      0.0023323615   0.0017017617   20.671423      18.933977      1.7374451     -1.5486463      18381.407    
    155000   0.87763742     0.0023323615   0.0075364507   19.975109      18.671817      1.3032916     -1.837664       18130.374    
    156000   1.1354588      0.0023323615   0.0013975012   20.565075      18.878919      1.6861562     -1.5788214      18259.721    
    157000   0.89086578     0.0023323615  -0.0054766398   20.439573      19.116637      1.3229357     -1.4035752      18363.912    
    158000   1.0460209      0.0023323615  -0.002839608    20.580779      19.027438      1.5533411     -1.4831606      18435.698    
    159000   1.0352953      0.0023323615  -0.003508292    20.553181      19.015768      1.5374135     -1.5241176      18393.432    
    160000   1.0304555      0.0023323615   0.0034976426   20.234545      18.704319      1.5302264     -1.8318247      18401.74     
    161000   0.9198063      0.0023323615  -0.0022421917   20.261273      18.895361      1.3659124     -1.6921975      18442.326    
    162000   1.0644925      0.0023323615   0.0025747955   20.646171      19.065399      1.5807714     -1.51034        18376.507    
    163000   1.0131706      0.0023323615  -0.0016828517   20.606796      19.102238      1.5045583     -1.4396063      18342.359    
    164000   1.0234657      0.0023323615  -0.0012791494   20.382         18.862153      1.5198465     -1.602523       18389.541    
    165000   1.0326662      0.0023323615   0.0029150271   20.333663      18.800154      1.5335093     -1.6589869      18321.248    
    166000   0.98846178     0.0023323615  -0.0008022062   20.523994      19.056128      1.4678657     -1.535506       18323.152    
    167000   0.98429619     0.0023323615  -0.0021659435   20.577166      19.115486      1.4616798     -1.4253916      18420.959    
    168000   1.0503736      0.0023323615   0.00066759253  20.380361      18.820556      1.5598047     -1.6582208      18233.427    
    169000   0.86471468     0.0023323615  -0.0023815039   20.541063      19.256962      1.2841013     -1.2695914      18403.888    
    170000   1.000663       0.0023323615   0.0013177299   20.296752      18.810767      1.4859845     -1.6200655      18477.762    
    171000   1.1242978      0.0023323615  -0.00039698928  20.636576      18.966994      1.6695822     -1.4522504      18474.578    
    172000   0.99697074     0.0023323615   0.00089615798  20.427828      18.947326      1.4805016     -1.6310684      18451.716    
    173000   0.79294537     0.0023323615   0.00071476531  20.168444      18.99092       1.1775239     -1.5727951      18219.282    
    174000   0.94727079     0.0023323615  -0.0024035646   20.48179       19.075092      1.4066971     -1.3576265      18394.591    
    175000   0.93425603     0.0023323615   0.0027211041   20.522303      19.134933      1.3873702     -1.3826647      18425.287    
    176000   1.006454       0.0023323615   0.0014844555   20.594177      19.099593      1.4945842     -1.4329634      18417.978    
    177000   1.0142106      0.0023323615   0.0023743733   20.841621      19.335519      1.5061027     -1.2157341      18584.882    
    178000   1.1232066      0.0023323615   0.0068876661   20.629033      18.961071      1.6679618     -1.6119168      18478.309    
    179000   0.86331205     0.0023323615   0.0030321805   20.096411      18.814393      1.2820184     -1.6267156      18236.898    
    180000   0.93753719     0.0023323615   0.0010236272   20.382423      18.990181      1.3922427     -1.5344127      18259.377    
    181000   0.9486173      0.0023323615  -0.0019674208   20.076245      18.667548      1.4086967     -1.8535889      18271.163    
    182000   1.0235821      0.0023323615  -0.0030583498   20.508162      18.988143      1.5200194     -1.5621098      18250.24     
    183000   0.94680385     0.0023323615   0.0038051106   20.592908      19.186904      1.4060037     -1.4381795      18403.85     
    184000   0.94862726     0.0023323615  -0.0019935378   20.291684      18.882973      1.4087115     -1.5797074      18334.02     
    185000   0.87715628     0.0023323615   0.0034324667   20.074723      18.772146      1.3025771     -1.8354275      18384.85     
    186000   1.0287583      0.0023323615   0.0027668566   20.157028      18.629322      1.5277061     -1.8557299      18198.052    
    187000   1.0555502      0.0023323615   0.00017317985  20.265167      18.697675      1.5674921     -1.8482756      18348.876    
    188000   0.90953286     0.0023323615  -0.0026482535   20.079661      18.729004      1.3506563     -1.7172276      18368.711    
    189000   1.0444614      0.0023323615   0.00038493414  20.404497      18.853472      1.5510252     -1.669193       18275.338    
    190000   0.92578085     0.0023323615  -0.003975683    20.409209      19.034425      1.3747846     -1.5304081      18455.394    
    191000   1.1011494      0.0023323615  -0.0020842034   20.48574       18.850533      1.6352069     -1.6130582      18374.45     
    192000   1.0644123      0.0023323615   0.0019447544   20.569252      18.9886        1.5806522     -1.6325097      18465.872    
    193000   1.0590531      0.0023323615  -0.0010479704   20.738565      19.165871      1.5726939     -1.4101481      18470.516    
    194000   0.95134562     0.0023323615   0.0012392392   20.161918      18.74917       1.4127483     -1.7072156      18339.672    
    195000   1.0593192      0.0023323615  -0.0022503934   20.532013      18.958924      1.573089      -1.5565576      18314.706    
    196000   0.98223876     0.0023323615   0.0011624573   20.385604      18.926979      1.4586246     -1.5558979      18321.81     
    197000   1.0512329      0.0023323615  -0.00021629931  20.679753      19.118672      1.5610809     -1.5043698      18401.207    
    198000   1.0126234      0.0023323615   0.0023716333   20.39239       18.888644      1.5037457     -1.6553324      18420.231    
    199000   1.1322856      0.0023323615   0.0031478723   20.807905      19.126461      1.6814441     -1.4562251      18466.022    
    200000   1.0086073      0.0023323615   0.00069171611  20.346782      18.849         1.4977818     -1.5779396      18392.252    
    201000   0.9927595      0.0023323615  -0.00090485746  20.539592      19.065344      1.4742479     -1.6082206      18349.419    
    202000   1.0913156      0.0023323615  -2.6263138e-05  20.396237      18.775633      1.6206036     -1.6468016      18231.342    
    203000   1.0445642      0.0023323615  -0.0027471224   20.6489        19.097723      1.5511779     -1.5886206      18205.454    
    204000   0.94378512     0.0023323615   0.0034758664   20.259464      18.857943      1.4015209     -1.6162685      18560.2      
    205000   0.92470434     0.0023323615   0.00030406715  20.201374      18.828188      1.3731859     -1.6264593      18494.864    
    206000   1.1130623      0.0023323615   0.0067511971   20.504035      18.851137      1.6528975     -1.6888783      18302.925    
    207000   1.0295369      0.0023323615   0.002690478    20.794997      19.266135      1.5288623     -1.3379757      18298.586    
    208000   0.9492521      0.0023323615  -0.0045046908   20.680575      19.270936      1.4096394     -1.218075       18524.679    
    209000   1.0005157      0.0023323615   0.0012900197   20.424725      18.93896       1.4857659     -1.5577532      18641.358    
    210000   0.96129981     0.0023323615   0.0017493496   20.478685      19.051155      1.4275302     -1.4396837      18454.21     
    211000   0.94642769     0.0023323615  -0.0027039447   20.515453      19.110008      1.4054451     -1.4456544      18524.383    
    212000   1.0345421      0.0023323615  -0.0017692698   20.294575      18.75828       1.536295      -1.7406401      18172.107    
    213000   0.90592471     0.0023323615  -0.001234501    20.234056      18.888758      1.3452982     -1.5731129      18276.513    
    214000   0.8614981      0.0023323615  -0.0067021614   20.327509      19.048185      1.2793247     -1.4683423      18451.047    
    215000   0.99165397     0.0023323615   0.001305477    20.470162      18.997556      1.4726061     -1.6431942      18292.422    
    216000   0.94451828     0.0023323615   0.003094631    20.531505      19.128895      1.4026097     -1.4477119      18318.952    
    217000   1.1278434      0.0023323615  -0.00031217507  20.703297      19.02845       1.6748474     -1.6189872      18350.381    
    218000   1.0429207      0.0023323615  -0.00023076501  20.445736      18.896999      1.5487373     -1.5990173      18396.191    
    219000   1.0833155      0.0023323615   0.0031682664   20.835898      19.227174      1.6087235     -1.4037         18336.862    
    220000   0.97743065     0.0023323615  -0.0047657937   20.67326       19.221775      1.4514845     -1.4820896      18335.922    
    221000   1.1743636      0.0023323615  -0.0027021619   20.669327      18.925397      1.74393       -1.6269834      18357.381    
    222000   0.96841475     0.0023323615  -0.005607063    20.646439      19.208343      1.4380959     -1.4740243      18418.946    
    223000   1.0333076      0.0023323615   0.0020646642   20.32498       18.790518      1.5344618     -1.6703569      18376.209    
    224000   0.86042409     0.0023323615   0.00082028032  20.365999      19.088269      1.2777298     -1.3046758      18386.54     
    225000   0.9812311      0.0023323615   0.00048485292  20.541151      19.084023      1.4571282     -1.4439623      18403.545    
    226000   1.0987475      0.0023323615   0.00061132966  20.422844      18.791204      1.6316401     -1.7140236      18340.653    
    227000   0.92950531     0.0023323615  -0.00014348961  20.297091      18.916775      1.3803154     -1.5040742      18218.507    
    228000   0.98581646     0.0023323615   0.0042326402   20.681778      19.217841      1.4639374     -1.3452612      18354.366    
    229000   0.93257873     0.0023323615   0.0017091726   20.489795      19.104916      1.3848794     -1.4212481      18226.085    
    230000   0.96791398     0.0023323615  -0.0011740208   20.600093      19.162741      1.4373523     -1.3465236      18406.678    
    231000   0.8995638      0.0023323615   0.00097801998  20.545932      19.21008       1.3358522     -1.3226075      18398.48     
    232000   0.95223605     0.0023323615   0.0033344876   20.240419      18.826348      1.4140705     -1.5974386      18308.29     
    233000   0.98353183     0.0023323615   0.00074067907  20.524273      19.063728      1.4605448     -1.5338215      18295.809    
    234000   1.1021862      0.0023323615  -0.0011413337   20.770638      19.133891      1.6367466     -1.4958235      18265.716    
    235000   0.98117713     0.0023323615  -0.0019787623   20.451818      18.99477       1.457048      -1.5165142      18358.316    
    236000   0.98667273     0.0023323615  -0.0026240135   20.612097      19.146888      1.465209      -1.3600136      18459.599    
    237000   0.88402282     0.0023323615  -0.00063440718  20.388256      19.075482      1.3127739     -1.5518916      18270.353    
    238000   1.059175       0.0023323615   0.0058888554   20.446574      18.873699      1.5728749     -1.5688421      18194.835    
    239000   0.97726609     0.0023323615   0.0043217019   20.156982      18.705742      1.4512401     -1.7236664      18258.342    
    240000   0.88200594     0.0023323615   0.002898558    20.285436      18.975657      1.3097788     -1.5810564      18167.467    
    241000   1.1571598      0.0023323615  -0.0031468474   20.815729      19.097346      1.7183823     -1.4547746      18252.396    
    242000   0.93733286     0.0023323615  -0.003181567    20.540031      19.148092      1.3919393     -1.3281161      18425.675    
    243000   0.96505863     0.0023323615   0.0014736494   20.387808      18.954696      1.4331121     -1.5657604      18235.209    
    244000   1.044371       0.0023323615  -4.5056828e-05  20.541648      18.990757      1.5508909     -1.6036654      18312.801    
    245000   1.0464564      0.0023323615  -0.002656206    20.51151       18.957522      1.5539878     -1.5836372      18338.793    
    246000   0.96045339     0.0023323615  -0.0034383165   20.322328      18.896055      1.4262733     -1.6087272      18368.238    
    247000   1.0577026      0.0023323615   0.00035048723  20.488605      18.917917      1.5706884     -1.4982889      18281.283    
    248000   1.1004912      0.0023323615   0.0021850751   20.770172      19.135943      1.6342294     -1.3471317      18287.251    
    249000   0.98886239     0.0023323615  -0.00038425633  20.372454      18.903993      1.4684607     -1.4842259      18399.013    
    250000   0.92640283     0.0023323615  -0.001627849    20.398641      19.022933      1.3757082     -1.6524616      18454.684    
    251000   0.93095165     0.0023323615   0.003357315    20.756441      19.373978      1.3824632     -1.1214708      18852.128    
    252000   0.84563268     0.0023323615  -0.0021011566   20.734825      19.47906       1.2557645     -1.0204961      19041.682    
    253000   0.87043289     0.0023323615   0.00053458766  20.662171      19.369578      1.2925928     -1.1014232      19076.466    
    254000   0.88408045     0.0023323615  -0.0014489835   20.259973      18.947113      1.3128595     -1.6030472      18469.532    
    255000   0.93873004     0.0023323615   0.0025742402   20.354012      18.959998      1.3940141     -1.4308437      18576.992    
    256000   0.96453393     0.0023323615   0.0013564462   20.232409      18.800076      1.4323329     -1.7452008      18357.58     
    257000   0.92259672     0.0023323615  -0.00024669935  20.391082      19.021026      1.3700561     -1.5175144      18381.177    
    258000   0.97078832     0.0023323615  -0.0007067271   20.396704      18.955084      1.4416207     -1.5119411      18492.911    
    259000   0.89151543     0.0023323615  -0.0024457681   20.327624      19.003724      1.3239004     -1.5976738      18533.361    
    260000   1.1958676      0.0023323615   0.0014021067   20.652812      18.876949      1.7758633     -1.5940103      18565.734    
    261000   1.0547753      0.0023323615   0.0012258392   20.655597      19.089256      1.5663413     -1.4151034      18597.698    
    262000   1.0599332      0.0023323615  -0.003295044    20.592773      19.018772      1.5740009     -1.4094538      18558.975    
    263000   0.97858388     0.0023323615  -0.0031815386   20.670825      19.217628      1.4531971     -1.321324       18295.558    
    264000   1.0002657      0.0023323615  -0.0019934129   20.653027      19.167632      1.4853946     -1.4254756      18428.832    
    265000   1.0992773      0.0023323615   0.0032457819   20.425357      18.79293       1.6324269     -1.6112053      18433.437    
    266000   0.96776965     0.0023323615   0.0034342635   20.485186      19.048048      1.4371379     -1.4136169      18432.413    
    267000   0.86679526     0.0023323615   0.0011321758   20.019137      18.731946      1.287191      -1.6910152      18396.14     
    268000   0.98139771     0.0023323615   0.0037956721   20.191689      18.734313      1.4573756     -1.776092       18263.333    
    269000   1.0763864      0.0023323615  -0.0035874255   20.406246      18.807812      1.5984338     -1.7409397      18284.484    
    270000   0.97271781     0.0023323615   0.0025420366   20.475059      19.030573      1.4444859     -1.4734264      18425.223    
    271000   0.94542898     0.0023323615   0.0017868579   20.529289      19.125327      1.403962      -1.3523418      18474.02     
    272000   0.97740678     0.0023323615  -0.0018756497   20.56065       19.109201      1.4514491     -1.5164113      18521.74     
    273000   1.1551155      0.0023323615  -0.00070460282  20.713768      18.998421      1.7153465     -1.5806119      18532.827    
    274000   1.0564887      0.0023323615  -0.00013624006  20.574489      19.005603      1.5688858     -1.5797385      18425.77     
    275000   1.0385609      0.0023323615   0.0021137018   20.442683      18.90042       1.5422629     -1.5903429      18374.649    
    276000   0.93373842     0.0023323615  -0.002389471    20.572863      19.186262      1.3866015     -1.3052193      18699.933    
    277000   1.0108442      0.0023323615  -0.0006500522   20.648825      19.147721      1.5011037     -1.3488361      18693.395    
    278000   0.94634207     0.0023323615  -0.00015362778  20.661596      19.256278      1.405318      -1.3764124      18546.639    
    279000   1.0779339      0.0023323615   0.00096536956  20.401466      18.800734      1.6007318     -1.6493625      18549.68     
    280000   0.96955601     0.0023323615  -0.00097515003  20.787982      19.348191      1.4397907     -1.3255873      18587.81     
    281000   1.1487466      0.0023323615  -0.0001844337   20.748079      19.042191      1.7058886     -1.5385677      18505.782    
    282000   0.97447995     0.0023323615   0.0033612746   20.45634       19.009237      1.4471027     -1.4602705      18583.156    
    283000   1.0328499      0.0023323615  -0.001294732    20.492431      18.958649      1.5337821     -1.6771967      18494.024    
    284000   1.0117254      0.0023323615   0.00031155062  20.872818      19.370406      1.5024122     -1.222444       18373.628    
    285000   1.0031308      0.0023323615   0.0032474422   20.486829      18.997179      1.4896493     -1.4679486      18560.666    
    286000   0.99033865     0.0023323615  -0.0022104699   20.81092       19.340268      1.4706529     -1.3778212      18541.868    
    287000   0.98130861     0.0023323615  -0.001661311    20.813178      19.355935      1.4572433     -1.2335453      18546.474    
    288000   0.96067635     0.0023323615  -0.0018003128   20.520013      19.093409      1.4266044     -1.416654       18468.711    
    289000   0.94057428     0.0023323615   0.0019511162   20.102132      18.705379      1.3967528     -1.6998045      18457.916    
    290000   1.0689766      0.0023323615  -0.0017423179   20.332544      18.745114      1.5874303     -1.7592327      18247.137    
    291000   1.0091643      0.0023323615  -1.0358103e-05  20.691177      19.192568      1.498609      -1.4874939      18408.256    
    292000   1.0676261      0.0023323615  -0.0028993526   20.374551      18.789126      1.5854248     -1.5951615      18340.872    
    293000   0.88383864     0.0023323615  -0.0036697202   20.677302      19.364802      1.3125004     -1.3941673      18460.056    
    294000   1.0799755      0.0023323615   0.0026428462   20.710474      19.10671       1.6037636     -1.5267482      18343.97     
    295000   1.0670102      0.0023323615   0.00019811841  20.537624      18.953114      1.5845101     -1.523186       18317.715    
    296000   1.0360975      0.0023323615   0.0047962866   20.463387      18.924782      1.5386048     -1.547246       18389.623    
    297000   1.1343981      0.0023323615  -0.0031412959   20.734953      19.050371      1.6845812     -1.4896237      18310.658    
    298000   1.120424       0.0023323615  -0.0028436879   20.860453      19.196623      1.6638297     -1.4022208      18464.178    
    299000   0.97708254     0.0023323615  -0.00068761018  20.37445       18.923482      1.4509676     -1.638107       18456.41     
    300000   0.99273724     0.0023323615  -2.2629577e-05  20.571025      19.09681       1.4742148     -1.4369436      18505.483    
    301000   0.87991856     0.0023323615   0.0036207657   20.465271      19.158592      1.3066791     -1.4866983      18394.571    
    302000   1.0515619      0.0023323615   0.00032163832  20.393341      18.831772      1.5615694     -1.6492363      18439.652    
    303000   0.97453582     0.0023323615   0.0032195148   20.328613      18.881428      1.4471857     -1.5545221      18336.111    
    304000   0.9348161      0.0023323615   0.0028271359   20.592414      19.204212      1.3882019     -1.2959432      18551.334    
    305000   1.0334433      0.0023323615  -0.002491765    20.337674      18.80301       1.5346633     -1.6174795      18545.844    
    306000   0.84835372     0.0023323615  -0.0035641146   20.387664      19.127859      1.2598053     -1.3727034      18518.619    
    307000   1.0131648      0.0023323615   0.0019547298   20.717692      19.213142      1.5045497     -1.319342       18566.749    
    308000   1.0238864      0.0023323615   0.001124928    20.748603      19.228131      1.5204712     -1.3800313      18478.785    
    309000   0.97894165     0.0023323615   0.0056714395   20.587985      19.134257      1.4537284     -1.4305781      18429.908    
    310000   1.0411534      0.0023323615   0.002404563    20.723919      19.177806      1.5461128     -1.4103483      18307.343    
    311000   0.9960789      0.0023323615   0.0013134545   20.291871      18.812694      1.4791772     -1.7081416      18400.865    
    312000   0.90460919     0.0023323615  -0.000253291    20.316204      18.972859      1.3433446     -1.5154003      18354.359    
    313000   1.0434218      0.0023323615  -0.00053162886  20.365933      18.816452      1.5494814     -1.804069       18214.494    
    314000   1.0233281      0.0023323615   0.0025851139   20.442969      18.923327      1.5196423     -1.6089227      18273.882    
    315000   0.93617201     0.0023323615  -0.003448607    20.468753      19.078537      1.3902154     -1.4370665      18302.056    
    316000   0.99967834     0.0023323615  -0.003102671    20.224013      18.73949       1.4845223     -1.6648332      18281.139    
    317000   1.0272695      0.0023323615  -0.0032796007   20.604478      19.078983      1.5254952     -1.4056914      18395.771    
    318000   1.0651106      0.0023323615  -0.0015421172   20.432386      18.850696      1.5816893     -1.6902828      18437.241    
    319000   0.97817408     0.0023323615   0.0021131694   20.354346      18.901758      1.4525885     -1.5446916      18361.649    
    320000   1.0910702      0.0023323615   0.00050798693  20.819449      19.19921       1.6202393     -1.3965656      18412.654    
    321000   1.1766713      0.0023323615  -0.002145685    20.999205      19.251849      1.7473569     -1.3648358      18328.731    
    322000   0.87680067     0.0023323615   0.00087388651  20.284657      18.982608      1.302049      -1.5316371      18356.199    
    323000   0.96763606     0.0023323615  -0.0014461231   20.388001      18.951062      1.4369395     -1.4815683      18436.481    
    324000   1.0063386      0.0023323615   2.6317061e-06  20.651996      19.157583      1.4944129     -1.2348876      18502.571    
    325000   0.90208036     0.0023323615  -0.0041066586   20.168987      18.829397      1.3395893     -1.6553486      18391.253    
    326000   0.96380471     0.0023323615   0.0026758628   20.226714      18.795464      1.43125       -1.701502       18018.362    
    327000   0.94814977     0.0023323615   0.0021771694   20.371297      18.963295      1.4080024     -1.6585216      17999.964    
    328000   1.0336897      0.0023323615  -0.0010426374   20.563779      19.02875       1.5350293     -1.5264239      18247.784    
    329000   1.0048868      0.0023323615  -0.0018825759   20.753025      19.260768      1.492257      -1.3687095      18346.799    
    330000   0.95389942     0.0023323615  -0.002908995    20.365274      18.948733      1.4165406     -1.5300337      18420.724    
    331000   1.0768963      0.0023323615   0.00085235486  20.592585      18.993394      1.599191      -1.4481411      18485.53     
    332000   0.94410109     0.0023323615  -0.00068755142  20.328213      18.926223      1.4019901     -1.5838889      18404.461    
    333000   1.1058637      0.0023323615   0.00035946475  20.501787      18.859579      1.6422076     -1.6117042      18419.045    
    334000   1.0297296      0.0023323615  -0.00020266172  20.551473      19.022325      1.5291485     -1.5544099      18269.474    
    335000   0.92080777     0.0023323615  -0.0048207685   20.454171      19.086771      1.3673995     -1.4428977      18429.489    
    336000   0.98588135     0.0023323615   0.00011818585  20.471056      19.007022      1.4640338     -1.4758223      18562.672    
    337000   0.97155545     0.0023323615   0.0031938183   20.35092       18.90816       1.4427598     -1.5589235      18476.91     
    338000   0.89859018     0.0023323615  -0.0032425076   20.334877      19.000471      1.3344064     -1.551557       18324.713    
    339000   0.99711327     0.0023323615   0.00066247641  20.543115      19.062402      1.4807132     -1.531613       18427.931    
    340000   1.0413599      0.0023323615   0.0037348422   20.761794      19.215375      1.5464194     -1.2606559      18395.903    
    341000   0.97713804     0.0023323615   0.0017609628   20.619988      19.168938      1.45105       -1.4703114      18582.363    
    342000   1.1747135      0.0023323615   0.0004994611   20.601736      18.857287      1.7444495     -1.594414       18501.213    
    343000   0.94528871     0.0023323615  -0.0031587394   20.65523       19.251476      1.4037537     -1.3285764      18581.308    
    344000   1.0792132      0.0023323615  -0.00045275871  21.003597      19.400965      1.6026317     -1.3188884      18581.615    
    345000   1.0281432      0.0023323615  -0.0010137513   20.567358      19.040565      1.5267927     -1.4050151      18674.184    
    346000   1.007506       0.0023323615   0.0016260997   20.454242      18.958095      1.4961464     -1.6581126      18570.947    
    347000   0.96158172     0.0023323615  -0.00050105904  20.337362      18.909413      1.4279488     -1.553823       18276.81     
    348000   1.0485955      0.0023323615   0.0044877139   20.667585      19.110421      1.5571643     -1.4559857      18441.008    
    349000   0.85888491     0.0023323615   0.0013729479   20.245439      18.969995      1.2754441     -1.5812568      18395.12     
    350000   1.1590839      0.0023323615  -0.0019338151   20.77162       19.050381      1.7212396     -1.3807514      18461.63     
    351000   0.9619341      0.0023323615  -3.4941392e-05  20.51856       19.090088      1.4284721     -1.448537       18416.156    
    352000   0.99389236     0.0023323615   0.0023269425   20.360794      18.884864      1.4759302     -1.6053734      18594.341    
    353000   0.91549421     0.0023323615  -0.0039377188   20.546308      19.186799      1.3595089     -1.4166873      18503.466    
    354000   0.99434826     0.0023323615  -0.0029087266   20.520714      19.044107      1.4766072     -1.3819919      18572.661    
    355000   1.0207422      0.0023323615   0.00096147927  20.588979      19.073177      1.5158022     -1.4574443      18629.65     
    356000   0.92235926     0.0023323615   0.0027304144   20.571479      19.201775      1.3697035     -1.4040573      18676.679    
    357000   1.0348636      0.0023323615   0.0052089409   20.771823      19.23505       1.5367724     -1.2604088      18666.926    
    358000   1.0579015      0.0023323615   0.0014950588   20.399704      18.828721      1.5709837     -1.6015762      18578.147    
    359000   1.0808271      0.0023323615   0.00055240074  20.517615      18.912587      1.6050283     -1.5056378      18548.983    
    360000   0.83548015     0.0023323615   0.0014827185   20.311478      19.07079       1.240688      -1.5477678      18462.549    
    361000   0.88048144     0.0023323615  -0.0060449527   20.508789      19.201274      1.3075149     -1.4415788      18646.348    
    362000   0.99003064     0.0023323615   0.0021076697   20.597926      19.127731      1.4701955     -1.4074263      18626.177    
    363000   0.91540989     0.0023323615   0.00043241773  20.259957      18.900573      1.3593837     -1.4855379      18698.08     
    364000   0.93426271     0.0023323615  -0.0030561092   20.580508      19.193128      1.3873801     -1.4233402      18614.672    
    365000   1.0809476      0.0023323615   0.0011957696   20.469972      18.864765      1.6052071     -1.617072       18331.265    
    366000   0.87671241     0.0023323615   0.0013137714   20.387369      19.085451      1.3019179     -1.4666454      18442.395    
    367000   1.0421746      0.0023323615  -0.0013985256   20.449578      18.901949      1.5476293     -1.6149778      18381.536    
    368000   1.1829123      0.0023323615  -0.0008740478   20.966955      19.21033       1.7566247     -1.3651549      18343.225    
    369000   1.2062779      0.0023323615  -2.2793685e-06  20.512147      18.720824      1.7913227     -1.6331136      18466.747    
    370000   1.1770836      0.0023323615   0.0018010468   20.727281      18.979312      1.7479691     -1.5507855      18457.192    
    371000   0.95967268     0.0023323615  -0.001628821    20.429376      19.004262      1.4251139     -1.663313       18273.524    
    372000   0.9544604      0.0023323615  -0.001783679    19.977394      18.56002       1.4173737     -1.8141302      18319.15     
    373000   1.0403822      0.0023323615  -0.00070035639  20.40698       18.862013      1.5449676     -1.6324702      18430.244    
    374000   1.1018146      0.0023323615   0.0052627855   20.439738      18.803543      1.6361947     -1.6802327      18296.5      
    375000   1.0499348      0.0023323615   0.0055985172   20.298355      18.739202      1.5591532     -1.7202751      18417.967    
    376000   1.0712034      0.0023323615  -0.0011398991   20.822445      19.231708      1.590737      -1.4075488      18341.229    
    377000   0.88715178     0.0023323615   0.00050543041  20.353856      19.036436      1.3174204     -1.4205735      18523.94     
    378000   0.90941028     0.0023323615   0.00081610613  20.312827      18.962353      1.3504743     -1.5279259      18412.114    
    379000   0.96853841     0.0023323615   7.3963689e-05  20.562214      19.123934      1.4382795     -1.3855228      18423.553    
    380000   0.90764342     0.0023323615  -0.0008147396   20.685816      19.337966      1.3478505     -1.3742135      18481.748    
    381000   1.0544679      0.0023323615  -0.0028912008   20.502252      18.936368      1.5658848     -1.6720257      18042.794    
    382000   1.0795865      0.0023323615   0.0029103039   20.610665      19.007479      1.603186      -1.4039158      18478.21     
    383000   0.96227539     0.0023323615  -0.00015141146  20.307301      18.878322      1.428979      -1.7136556      18441.744    
    384000   0.95884119     0.0023323615  -0.0048584382   20.364285      18.940406      1.4238792     -1.5248485      18484.807    
    385000   0.88244283     0.0023323615   0.00074090525  20.171396      18.860968      1.3104276     -1.6791239      18525.728    
    386000   0.93055976     0.0023323615   0.0041052266   20.336941      18.955059      1.3818812     -1.6305197      18455.776    
    387000   1.1160353      0.0023323615  -0.0010911814   20.937857      19.280544      1.6573124     -1.3754194      18363.852    
    388000   0.9407162      0.0023323615   0.0019794372   20.500284      19.103321      1.3969636     -1.4607083      18480.759    
    389000   0.98403398     0.0023323615   0.0011785809   20.506265      19.044974      1.4612905     -1.5237617      18351.72     
    390000   0.97363311     0.0023323615  -0.0010470145   20.607705      19.16186       1.4458452     -1.4758833      18473.466    
    391000   1.1449314      0.0023323615   0.00017592987  20.619244      18.91902       1.7002231     -1.6334022      18525.14     
    392000   0.87943229     0.0023323615   0.00062340406  20.551631      19.245674      1.305957      -1.2973025      18515.758    
    393000   1.0952641      0.0023323615   0.0025231063   20.389032      18.762564      1.6264671     -1.6854318      18451.62     
    394000   1.071348       0.0023323615  -0.00079779676  20.597273      19.006322      1.5909518     -1.4879974      18407.387    
    395000   1.0023555      0.0023323615  -0.00060953263  20.314153      18.825655      1.488498      -1.6594794      18356.965    
    396000   0.94438794     0.0023323615   0.0039161119   20.407428      19.005012      1.4024161     -1.478266       18412.854    
    397000   0.87479454     0.0023323615  -0.001425941    20.064172      18.765102      1.2990699     -1.716339       18443.836    
    398000   1.0620986      0.0023323615  -0.0019991232   20.77394       19.196724      1.5772164     -1.445533       18248.084    
    399000   1.038222       0.0023323615  -0.00095385082  20.67519       19.133431      1.5417596     -1.3382291      18306.99     
    400000   1.0344899      0.0023323615  -8.0956536e-05  20.962532      19.426314      1.5362175     -1.2008065      18489.995    
    401000   0.95688215     0.0023323615   0.00032394115  20.534687      19.113717      1.42097       -1.3392357      18699.418    
    402000   0.99711648     0.0023323615  -0.0016400429   20.463143      18.982425      1.480718      -1.4906751      18584.477    
    403000   1.0093955      0.0023323615  -0.0011737432   20.59473       19.095778      1.4989524     -1.4082565      18546.543    
    404000   1.019584       0.0023323615   0.0013119653   20.805542      19.29146       1.5140822     -1.2795448      18586.221    
    405000   0.99868819     0.0023323615  -0.00040043988  20.594448      19.111396      1.483052      -1.3880828      18512.777    
    406000   1.1546288      0.0023323615   0.00091961531  20.896434      19.18181       1.7146237     -1.4609441      18510.387    
    407000   1.0951344      0.0023323615  -0.0013585469   20.513675      18.8874        1.6262746     -1.5831675      18325.816    
    408000   1.0315042      0.0023323615  -0.0021531188   20.537875      19.006091      1.5317838     -1.5347605      18305.963    
    409000   0.913574       0.0023323615   0.0030163481   20.385188      19.02853       1.3566574     -1.4528042      18462.785    
    410000   1.039284       0.0023323615   0.0021841999   20.705085      19.161748      1.5433368     -1.3908081      18433.447    
[...]
    861000   0.93453502     0.0023323615  -0.00019954619  20.403957      19.016173      1.3877845     -1.5903695      18462.44     
    862000   0.93051897     0.0023323615  -0.0016103178   20.268985      18.887164      1.3818207     -1.5356496      18308.562    
    863000   1.0281371      0.0023323615   0.0018377106   20.357818      18.831034      1.5267836     -1.642798       18408.372    
    864000   0.86597275     0.0023323615   0.0029234654   20.228212      18.942242      1.2859695     -1.5264179      18406.165    
    865000   0.89157028     0.0023323615  -0.0056754522   20.402638      19.078656      1.3239819     -1.4045219      18503.6      
    866000   1.204397       0.0023323615  -0.002746523    20.92734       19.13881       1.7885295     -1.4377581      18514.515    
    867000   0.97064395     0.0023323615  -0.0023246222   20.257249      18.815843      1.4414063     -1.6531054      18277.841    
    868000   1.0959565      0.0023323615   0.0015985081   20.656525      19.029029      1.6274953     -1.5204072      18428.883    
    869000   1.1032788      0.0023323615  -0.00021244702  20.647808      19.009439      1.638369      -1.6107977      18539.027    
    870000   0.90078443     0.0023323615   0.00052166553  20.486173      19.148508      1.3376649     -1.4313891      18561.028    
    871000   1.0977829      0.0023323615  -0.00093075648  20.704469      19.074261      1.6302076     -1.5057077      18407.217    
    872000   1.0077091      0.0023323615   0.00072240528  20.690043      19.193595      1.496448      -1.3580377      18548.607    
    873000   0.91160144     0.0023323615   0.0025645463   20.301289      18.94756       1.3537281     -1.4945765      18434.768    
    874000   1.0256939      0.0023323615   0.0014055334   20.251843      18.728688      1.5231555     -1.7151239      18258.826    
    875000   0.91302812     0.0023323615  -0.00014017583  20.494473      19.138626      1.3558468     -1.3896946      18284.357    
    876000   0.95227941     0.0023323615  -0.00071369843  20.63875       19.224615      1.4141349     -1.3340529      18364.443    
    877000   0.98490296     0.0023323615   0.00045969409  20.718601      19.25602       1.4625809     -1.2373288      18558.882    
    878000   0.96771148     0.0023323615  -0.00089077665  20.539407      19.102356      1.4370516     -1.4837223      18406.555    
    879000   0.94619522     0.0023323615  -0.0019167194   20.356658      18.951558      1.4050999     -1.6352084      18471.757    
    880000   0.93372027     0.0023323615   0.00019958944  20.439649      19.053074      1.3865746     -1.5105517      18326.681    
    881000   0.85784889     0.0023323615  -0.0044981677   20.47709       19.203185      1.2739056     -1.4151388      18377.413    
    882000   1.0511545      0.0023323615   0.003513813    20.615983      19.055019      1.5609644     -1.5030302      18594.867    
    883000   0.85096937     0.0023323615  -0.0041463861   20.363714      19.100024      1.2636895     -1.3983877      18949.49     
    884000   1.1498966      0.0023323615  -0.00043470837  21.101775      19.394178      1.7075965     -1.125327       19323.5      
    885000   0.90026058     0.0023323615   0.00090313383  20.429025      19.092138      1.336887      -1.3779792      19123.541    
    886000   0.97998986     0.0023323615   0.0032574682   20.466301      19.011016      1.4552849     -1.4883661      18780.532    
    887000   1.0956312      0.0023323615  -0.0013256339   20.765544      19.138532      1.6270124     -1.3765235      18658.538    
    888000   1.1197244      0.0023323615  -0.0022971139   20.599186      18.936395      1.6627907     -1.5028371      18556.201    
    889000   1.137875       0.0023323615  -0.001898548    20.46962       18.779875      1.6897443     -1.6521274      18590.926    
    890000   0.91429751     0.0023323615   0.0025867228   20.518696      19.160964      1.3577318     -1.328235       18499.08     
    891000   0.86706373     0.0023323615   0.00040875965  20.519405      19.231815      1.2875896     -1.3154673      18536.63     
    892000   1.0606899      0.0023323615  -0.0020365858   20.466608      18.891484      1.5751245     -1.5061023      18434.04     
    893000   1.014344       0.0023323615  -0.00098543949  20.719612      19.213311      1.5063009     -1.3139831      18424.311    
    894000   1.0938387      0.0023323615   0.00049842137  20.908685      19.284335      1.6243505     -1.3878927      18288.417    
    895000   1.1137603      0.0023323615   0.0023951336   20.62082       18.966886      1.6539341     -1.4826732      18336.896    
    896000   1.025716       0.0023323615  -0.0012802513   20.412078      18.888889      1.5231883     -1.7848911      18145.671    
    897000   0.91175717     0.0023323615   0.0010299701   20.268105      18.914145      1.3539594     -1.6418646      18211.038    
    898000   1.0187733      0.0023323615   0.0017980127   20.286858      18.77398       1.5128783     -1.620733       18197.306    
    899000   0.9826177      0.0023323615   0.00066369375  20.097626      18.638439      1.4591873     -1.7709461      18154.989    
    900000   1.1420241      0.0023323615   0.0006089944   20.574996      18.87909       1.6959058     -1.6020975      18030.607    
    901000   1.0272265      0.0023323615   0.0034742834   20.899286      19.373855      1.5254313     -1.30928        18569.326    
    902000   1.0281944      0.0023323615   0.0058816226   20.835454      19.308585      1.5268687     -1.3268226      18559.424    
    903000   0.97486903     0.0023323615  -0.00017964998  20.547957      19.100276      1.4476805     -1.4909552      18420.333    
    904000   1.0001733      0.0023323615   0.0031564534   20.471123      18.985865      1.4852573     -1.532591       18404.845    
    905000   0.99366772     0.0023323615  -0.0017184003   20.544501      19.068904      1.4755966     -1.5437888      18366.251    
    906000   1.0173664      0.0023323615   0.0016782381   20.674979      19.16419       1.5107891     -1.2863453      18405.378    
    907000   1.0164298      0.0023323615   0.0014614907   20.653602      19.144204      1.5093983     -1.4166963      18592.138    
    908000   1.0021905      0.0023323615  -0.00010776589  20.662011      19.173758      1.4882529     -1.3572865      19169.141    
    909000   1.032928       0.0023323615   0.0020194214   20.669674      19.135776      1.533898      -1.3786641      19144.632    
    910000   0.94599006     0.0023323615   0.0012360225   20.84602       19.441224      1.4047952     -1.0707327      19066.473    
    911000   0.87823195     0.0023323615   0.0013585796   20.415776      19.111602      1.3041745     -1.4152869      18682.702    
    912000   0.94947848     0.0023323615  -0.0012897095   20.394292      18.984317      1.4099755     -1.4547585      18473.425    
    913000   1.0438609      0.0023323615   0.0014628966   20.531264      18.98113       1.5501335     -1.4644244      18452.026    
    914000   0.9906178      0.0023323615   5.0100125e-05  20.599906      19.128839      1.4710674     -1.4129789      18411.502    
    915000   1.0064334      0.0023323615  -0.0013982254   20.379407      18.884853      1.4945537     -1.7183211      18346.694    
    916000   0.98767634     0.0023323615  -0.0015343111   20.382875      18.916176      1.4666994     -1.7187692      18377.694    
    917000   0.94239381     0.0023323615  -0.0051703644   20.397266      18.997811      1.3994548     -1.6249864      18278.949    
    918000   1.2421147      0.0023323615   0.0062785868   20.58691       18.74237       1.8445403     -1.7250034      18302.328    
    919000   1.0452391      0.0023323615   0.0051999816   20.435741      18.883561      1.55218       -1.6074346      18304.882    
    920000   1.0310505      0.0023323615   0.0041064223   20.604898      19.073788      1.53111       -1.4795886      18401.923    
    921000   1.0355452      0.0023323615   0.0011564305   20.435167      18.897382      1.5377846     -1.5581629      18492.952    
    922000   0.86649463     0.0023323615  -0.00258129     20.12513       18.838386      1.2867445     -1.6549637      18489.704    
    923000   0.97539664     0.0023323615  -0.00054380717  20.291575      18.843111      1.448464      -1.7109163      18433.975    
    924000   1.0614587      0.0023323615   0.00093301332  20.290352      18.714085      1.5762662     -1.7661969      18435.048    
    925000   1.0542467      0.0023323615  -0.0040128813   20.536932      18.971376      1.5655563     -1.7066282      18361.453    
    926000   1.1348317      0.0023323615   0.00014071429  20.711795      19.02657       1.685225      -1.559501       18402.439    
    927000   1.0069157      0.0023323615   0.0013385091   20.618475      19.123205      1.4952698     -1.44739        18368.36     
    928000   1.0574612      0.0023323615  -0.00079460727  20.482402      18.912072      1.5703299     -1.5546265      18550.676    
    929000   1.0544469      0.0023323615  -0.002726096    20.628337      19.062483      1.5658537     -1.4390852      18512.557    
    930000   1.0070385      0.0023323615  -7.8234112e-05  20.39002       18.894568      1.4954522     -1.5917983      18585.757    
    931000   0.97753981     0.0023323615  -0.0015245613   20.389462      18.937815      1.4516466     -1.5433847      18354.325    
    932000   1.008089       0.0023323615   0.0026299949   20.558044      19.061032      1.4970121     -1.3717119      18298.66     
    933000   1.0103687      0.0023323615   0.004520623    20.609743      19.109345      1.5003975     -1.5308139      17975.765    
    934000   1.0034636      0.0023323615  -0.0053394909   20.775832      19.285689      1.4901434     -1.381232       18397.005    
    935000   1.0696261      0.0023323615   0.0016557506   20.658533      19.070138      1.5883947     -1.458441       18501.24     
    936000   1.0082628      0.0023323615  -0.0031684609   20.688017      19.190747      1.4972702     -1.4353834      18339.238    
    937000   0.92579511     0.0023323615   0.0024626366   20.350819      18.976013      1.3748057     -1.6093516      18333.057    
    938000   1.0056305      0.0023323615   0.0013319889   20.249508      18.756146      1.4933613     -1.6856505      18472.256    
    939000   1.0145636      0.0023323615   0.0036422375   20.415967      18.90934       1.5066269     -1.57018        18346.225    
    940000   1.0257314      0.0023323615   0.0015445161   20.379946      18.856735      1.5232111     -1.6308941      18395.679    
    941000   0.96710361     0.0023323615   0.0011048865   20.414044      18.977895      1.4361489     -1.5705475      18267.755    
    942000   0.94276364     0.0023323615   0.0046017779   20.35771       18.957706      1.400004      -1.5776618      18552.052    
    943000   0.93636864     0.0023323615   0.0014892488   20.159248      18.768741      1.3905074     -1.7173695      18405.992    
    944000   0.81804675     0.0023323615   0.0017975944   19.95074       18.735941      1.2147994     -1.7069015      18357.748    
    945000   0.96835996     0.0023323615   0.0025456847   20.351242      18.913227      1.4380145     -1.5857193      18430.017    
    946000   1.0391628      0.0023323615  -0.0020295843   20.260443      18.717286      1.5431568     -1.6867475      18412.691    
    947000   0.98708343     0.0023323615  -0.00018014042  20.429192      18.963374      1.4658189     -1.5311542      18270.043    
    948000   0.97486734     0.0023323615  -0.00061939624  20.300773      18.853095      1.447678      -1.5071018      18280.322    
    949000   0.83220323     0.0023323615   0.00014372948  19.92788       18.692058      1.2358218     -1.7773997      18268.708    
    950000   1.0833009      0.0023323615  -0.0018878817   20.490683      18.881981      1.6087018     -1.6825076      18302.254    
    951000   1.0250623      0.0023323615  -0.0011985618   20.179265      18.657048      1.5222175     -1.8418518      18273.391    
    952000   1.0789678      0.0023323615   0.00073454175  20.329571      18.727304      1.6022672     -1.7394911      18331.238    
    953000   1.0767412      0.0023323615  -0.0032446545   20.530844      18.931884      1.5989607     -1.6145649      18064.966    
    954000   0.8807538      0.0023323615   0.0033669959   20.509628      19.201709      1.3079194     -1.3222129      18328.263    
    955000   1.0364442      0.0023323615   0.0029368049   20.407574      18.868455      1.5391196     -1.6837602      18223.091    
    956000   1.0350551      0.0023323615   0.0028244294   20.942782      19.405725      1.5370569     -1.1408234      18330.222    
    957000   0.88151402     0.0023323615  -0.0013836941   20.496955      19.187907      1.3090483     -1.3473434      18528.905    
    958000   1.1016506      0.0023323615  -0.0020600071   20.637849      19.001898      1.6359511     -1.4626702      18419.157    
    959000   0.91484685     0.0023323615  -0.00032165484  20.30873       18.950183      1.3585476     -1.468565       18479.038    
    960000   1.0696948      0.0023323615   0.0032383336   20.838553      19.250057      1.5884967     -1.2931883      18428.111    
    961000   0.93669314     0.0023323615  -0.0020369387   20.437011      19.046022      1.3909893     -1.4771785      18435.793    
    962000   1.2362154      0.0023323615   0.0023690728   20.724784      18.889004      1.8357799     -1.5741551      18523.338    
    963000   1.0493152      0.0023323615  -0.0015450341   20.703669      19.145436      1.5582331     -1.4116703      18599.542    
    964000   0.97126718     0.0023323615  -0.0035269862   20.32117       18.878839      1.4423318     -1.5841593      18623.299    
    965000   1.019509       0.0023323615  -0.00056771883  20.345025      18.831054      1.5139709     -1.5980307      18314.757    
    966000   0.89861324     0.0023323615  -0.0020225239   20.36714       19.0327        1.3344407     -1.5581039      18331.851    
    967000   1.0010539      0.0023323615   0.007068072    20.394041      18.907476      1.486565      -1.5783925      18206.836    
    968000   1.1027795      0.0023323615   0.00034866649  20.738122      19.100495      1.6376276     -1.5418234      18194.692    
    969000   1.0726741      0.0023323615   0.003049777    20.642784      19.049863      1.5929211     -1.5816723      18224.97     
    970000   0.86678491     0.0023323615   0.0069309929   20.405294      19.118119      1.2871756     -1.4414604      18344.169    
    971000   1.0149988      0.0023323615  -0.0016298298   20.610177      19.102904      1.5072732     -1.3534227      18395.849    
    972000   0.97186351     0.0023323615   0.0027097923   20.623396      19.180178      1.4432173     -1.4468508      18213.161    
    973000   1.0413019      0.0023323615   0.002513328    20.448422      18.902089      1.5463334     -1.5931845      18355.132    
    974000   1.0696434      0.0023323615   0.00018885392  20.703922      19.115502      1.5884205     -1.4041434      18386.692    
    975000   1.0092338      0.0023323615   0.0014953955   20.384434      18.885721      1.4987122     -1.6025177      18309.711    
    976000   0.91552144     0.0023323615  -0.0030530337   20.234645      18.875096      1.3595493     -1.6485281      18313.812    
    977000   1.0685187      0.0023323615  -0.001732664    20.745848      19.159098      1.5867503     -1.3928357      18325.675    
    978000   1.1112941      0.0023323615   0.00055041526  20.996718      19.346447      1.6502717     -1.1651322      18464.588    
    979000   0.89336539     0.0023323615   0.0034490928   20.267935      18.941288      1.3266476     -1.5183827      18406.433    
    980000   1.1394286      0.0023323615   0.0054630359   20.616435      18.924383      1.6920515     -1.5727096      18510.017    
    981000   0.88129907     0.0023323615  -0.0046364181   20.436574      19.127845      1.3087291     -1.4953463      18316.605    
    982000   1.0911966      0.0023323615   0.0022519431   20.52056       18.900133      1.620427      -1.6091446      18223.653    
    983000   0.93076031     0.0023323615  -0.001739746    20.10789       18.725711      1.3821791     -1.737035       18260.57     
    984000   1.1126793      0.0023323615   0.00028802277  20.735319      19.08299       1.6523288     -1.4321618      18420.823    
    985000   0.96726074     0.0023323615  -0.0019431049   20.359174      18.922791      1.4363822     -1.6432299      18600.731    
    986000   1.1171469      0.0023323615   0.0054409435   20.549236      18.890273      1.6589631     -1.6233146      18405.937    
    987000   0.94788698     0.0023323615   0.0011857738   20.299913      18.892301      1.4076122     -1.6082197      18495.765    
    988000   0.79887495     0.0023323615   0.0023877929   19.922486      18.736157      1.1863293     -1.767675       18540.308    
    989000   0.95405367     0.0023323615  -0.0028532089   20.309509      18.892739      1.4167697     -1.5995994      18474.536    
    990000   0.89830091     0.0023323615  -0.0017587559   20.061431      18.727454      1.3339768     -1.7159005      18400.932    
    991000   1.2251069      0.0023323615  -0.0005227792   20.86853       19.049246      1.8192837     -1.4669531      18373.638    
    992000   0.92151254     0.0023323615  -0.00023632935  20.361074      18.992628      1.3684461     -1.4778551      18350.01     
    993000   0.98047702     0.0023323615  -0.0024964054   20.789493      19.333484      1.4560084     -1.1703189      18375.001    
    994000   0.95525207     0.0023323615  -0.00099691169  20.319466      18.900917      1.4185493     -1.4769132      18321.03     
    995000   0.92506141     0.0023323615  -0.0017231735   20.416287      19.042571      1.3737162     -1.4863502      18359.846    
    996000   0.97760155     0.0023323615   0.00032227036  20.175852      18.724114      1.4517383     -1.7721384      18306.017    
    997000   1.0061889      0.0023323615   0.0010759982   20.29189       18.7977        1.4941904     -1.6183632      18155.223    
    998000   0.98835234     0.0023323615   0.00029995244  20.667379      19.199676      1.4677032     -1.3352931      18266.666    
    999000   0.98144584     0.0023323615  -0.0068103068   20.64516       19.187713      1.4574471     -1.3403028      18596.336    
   1000000   0.97348556     0.0023323615  -0.002402702    20.246446      18.80082       1.4456261     -1.747496       18367.559    
Loop time of 54.235 on 1 procs for 1000000 steps with 100 atoms

Performance: 7965329.228 tau/day, 18438.262 timesteps/s
99.4% CPU use with 1 MPI tasks x 1 OpenMP threads

MPI task timing breakdown:
Section |  min time  |  avg time  |  max time  |%varavg| %total
---------------------------------------------------------------
Pair    | 45.281     | 45.281     | 45.281     |   0.0 | 83.49
Bond    | 1.2549     | 1.2549     | 1.2549     |   0.0 |  2.31
Neigh   | 3.8073     | 3.8073     | 3.8073     |   0.0 |  7.02
Comm    | 1.3808     | 1.3808     | 1.3808     |   0.0 |  2.55
Output  | 0.2125     | 0.2125     | 0.2125     |   0.0 |  0.39
Modify  | 1.941      | 1.941      | 1.941      |   0.0 |  3.58
Other   |            | 0.3576     |            |       |  0.66

Nlocal:            100 ave         100 max         100 min
Histogram: 1 0 0 0 0 0 0 0 0 0
Nghost:            332 ave         332 max         332 min
Histogram: 1 0 0 0 0 0 0 0 0 0
Neighs:           4851 ave        4851 max        4851 min
Histogram: 1 0 0 0 0 0 0 0 0 0

Total # of neighbors = 4851
Ave neighs/atom = 48.51
Ave special neighs/atom = 1.98
Neighbor list builds = 97859
Dangerous builds = 79741

write_data      ${outputfile_assembled} nofix nocoeff
write_data      7_assembled.data nofix nocoeff
System init for write_data ...
Generated 0 of 6 mixed pair_coeff terms from geometric mixing rule

Total wall time: 0:00:55
