LAMMPS (23 Jun 2022 - Update 1)
OMP_NUM_THREADS environment is not set. Defaulting to 1 thread. (src/comm.cpp:98)
  using 1 OpenMP thread(s) per MPI task


variable        runtime equal 1000000
variable		subsample_rate equal 1000

variable		outputfile_created string '3_created.data'
variable		outputfile_relaxed string '5_relaxed.data'
variable		outputfile_selfasb string '6_a_self_assemble.lammpstrj'
variable		outputfile_trajlin string '6_b_trajlin.data'
variable		outputfile_assembled string '7_assembled.data'

units           lj
atom_style      full
dimension       3
boundary        p p p
timestep        0.005

read_data       ${outputfile_created}
read_data       3_created.data
Reading data file ...
  orthogonal box = (0 0 0) to (35 35 35)
  1 by 1 by 1 MPI processor grid
  reading atoms ...
  100 atoms
  reading velocities ...
  100 velocities
  scanning bonds ...
  1 = max bonds/atom
  reading bonds ...
  99 bonds
Finding 1-2 1-3 1-4 neighbors ...
  special bond factors lj:    0        0        0       
  special bond factors coul:  0        0        0       
     2 = max # of 1-2 neighbors
     2 = max # of 1-3 neighbors
     4 = max # of 1-4 neighbors
     6 = max # of special neighbors
  special bonds CPU = 0.000 seconds
  read_data CPU = 0.017 seconds

bond_style      fene
bond_coeff      * 30.0 1.5 1.0 1.0
special_bonds   fene
Finding 1-2 1-3 1-4 neighbors ...
  special bond factors lj:    0        1        1       
  special bond factors coul:  0        1        1       
     2 = max # of 1-2 neighbors
     6 = max # of special neighbors
  special bonds CPU = 0.000 seconds

variable        Temp equal 1.0
variable        velSeed equal 926458

velocity        all create ${Temp} ${velSeed}
velocity        all create 1 ${velSeed}
velocity        all create 1 926458

### Output
thermo_style    custom step temp density press etotal pe ke epair spcpu
thermo          1000

###########################################################################
# Soft relaxation (to remove overlaps of particles)
######################################################################

pair_style      soft 1.0
pair_coeff      * * 0.0
variable        prefactor equal ramp(0,300)
fix             rampSoft all adapt 1 pair soft a * * v_prefactor

minimize        0.0 1.0e-8 1000 100000
WARNING: Using 'neigh_modify every 1 delay 0 check yes' setting during minimization (src/min.cpp:187)
Generated 0 of 6 mixed pair_coeff terms from geometric mixing rule
Neighbor list info ...
  update every 1 steps, delay 0 steps, check yes
  max neighbors/atom: 2000, page size: 100000
  master list distance cutoff = 1.3
  ghost atom cutoff = 1.3
  binsize = 0.65, bins = 54 54 54
  1 neighbor lists, perpetual/occasional/extra = 1 0 0
  (1) pair soft, perpetual
      attributes: half, newton on
      pair build: half/bin/newton
      stencil: half/bin/3d
      bin: standard
WARNING: Communication cutoff 1.3 is shorter than a bond length based estimate of 1.7550000000000001. This may lead to errors. (src/comm.cpp:727)
Per MPI rank memory allocation (min/avg/max) = 8.346 | 8.346 | 8.346 Mbytes
   Step          Temp         Density         Press          TotEng         PotEng         KinEng         E_pair         S/CPU     
         0   1              0.0023323615  -0.0039617958   21.524174      20.039174      1.485          0              0            
       362   1              0.0023323615   0.0023090379   21.485548      20.000548      1.485          0              66572.24     
Loop time of 0.00544181 on 1 procs for 362 steps with 100 atoms

94.8% CPU use with 1 MPI tasks x 1 OpenMP threads

Minimization stats:
  Stopping criterion = force tolerance
  Energy initial, next-to-last, final = 
      20.0391741078675   20.0005480767337   20.0005480767337
  Force two-norm initial, final = 11.878422 7.9509778e-09
  Force max component initial, final = 6.6117807 1.3572772e-09
  Final line search alpha, max atom move = 1 1.3572772e-09
  Iterations, force evaluations = 362 738

MPI task timing breakdown:
Section |  min time  |  avg time  |  max time  |%varavg| %total
---------------------------------------------------------------
Pair    | 0.00021416 | 0.00021416 | 0.00021416 |   0.0 |  3.94
Bond    | 0.0023366  | 0.0023366  | 0.0023366  |   0.0 | 42.94
Neigh   | 0.0017041  | 0.0017041  | 0.0017041  |   0.0 | 31.31
Comm    | 0.00018836 | 0.00018836 | 0.00018836 |   0.0 |  3.46
Output  | 0          | 0          | 0          |   0.0 |  0.00
Modify  | 0          | 0          | 0          |   0.0 |  0.00
Other   |            | 0.0009986  |            |       | 18.35

Nlocal:            100 ave         100 max         100 min
Histogram: 1 0 0 0 0 0 0 0 0 0
Nghost:             20 ave          20 max          20 min
Histogram: 1 0 0 0 0 0 0 0 0 0
Neighs:              0 ave           0 max           0 min
Histogram: 1 0 0 0 0 0 0 0 0 0

Total # of neighbors = 0
Ave neighs/atom = 0
Ave special neighs/atom = 1.98
Neighbor list builds = 17
Dangerous builds = 0

fix             nvtSoft all nvt temp ${Temp} ${Temp} 0.5
fix             nvtSoft all nvt temp 1 ${Temp} 0.5
fix             nvtSoft all nvt temp 1 1 0.5
run             100000
Generated 0 of 6 mixed pair_coeff terms from geometric mixing rule
WARNING: Communication cutoff 1.3 is shorter than a bond length based estimate of 1.7550000000000001. This may lead to errors. (src/comm.cpp:727)
Per MPI rank memory allocation (min/avg/max) = 7.221 | 7.221 | 7.221 Mbytes
   Step          Temp         Density         Press          TotEng         PotEng         KinEng         E_pair         S/CPU     
       362   1              0.0023323615   0.0023090379   21.485548      20.000548      1.485          0              0            
      1000   0.90989032     0.0023323615  -0.0021940042   21.776974      20.425787      1.3511871      0.00036425437  76787.417    
      2000   0.86546688     0.0023323615   0.0034714157   21.677128      20.39191       1.2852183      0.0025814786   76776.228    
      3000   0.98199538     0.0023323615   0.0028144228   21.866132      20.407869      1.4582631      0.0011756043   74094.563    
      4000   1.004495       0.0023323615  -0.0014058211   21.945624      20.453949      1.4916751      0.011986179    73892.539    
      5000   1.1222705      0.0023323615   0.0044495116   21.986385      20.319813      1.6665718      0.0050317639   74364.171    
      6000   1.0538243      0.0023323615   0.0023957538   21.985713      20.420784      1.564929       0.012100514    75229.51     
      7000   1.0210598      0.0023323615  -0.00038820026  21.904665      20.388391      1.5162738      0              76637.696    
      8000   0.94819751     0.0023323615   0.0024943091   21.747889      20.339816      1.4080733      0              76377.314    
      9000   0.92364502     0.0023323615   0.0020053029   21.724166      20.352554      1.3716129      1.7780894e-05  75732.154    
     10000   0.86685188     0.0023323615   0.00078277366  21.644879      20.357604      1.287275       0.0098636418   75885.541    
     11000   1.0057103      0.0023323615   0.00010113276  21.8558        20.362321      1.4934798      0.020705341    75723.133    
     12000   0.97901664     0.0023323615  -0.0026996968   21.871206      20.417366      1.4538397      0.0052928539   75582.933    
     13000   0.97718436     0.0023323615  -6.1641422e-06  21.963706      20.512587      1.4511188      0.025022446    75407.684    
     14000   1.0530014      0.0023323615  -0.0009993112   21.947994      20.384287      1.5637071      0.0020860456   74873.759    
     15000   0.99094527     0.0023323615   0.0011068478   21.895146      20.423592      1.4715537      0.0015091113   75760.491    
     16000   0.91285091     0.0023323615  -0.00025424173  21.87524       20.519657      1.3555836      0.0047853639   74498.883    
     17000   0.82806978     0.0023323615  -0.00054698156  21.701984      20.472301      1.2296836      0              75060.187    
     18000   1.043278       0.0023323615  -6.6143919e-05  22.003299      20.454031      1.5492679      0.0034319132   75898.868    
     19000   1.0879249      0.0023323615  -0.0017804642   21.998985      20.383416      1.6155685      0.015376175    74519.741    
     20000   1.1144506      0.0023323615   0.0025198298   22.190904      20.535944      1.6549592      0              75953.392    
     21000   1.0427751      0.0023323615   0.0011345349   22.099492      20.550971      1.548521       0.00040047813  75859.526    
     22000   1.0586695      0.0023323615   0.0017882747   22.05673       20.484606      1.5721242      0              75699.356    
     23000   1.0058426      0.0023323615  -0.0055245362   21.954628      20.460951      1.4936763      0.0027619031   75050.988    
     24000   0.98273442     0.0023323615   0.0015147357   21.862067      20.402707      1.4593606      0              75501.916    
     25000   0.95835343     0.0023323615   0.0017808774   21.937761      20.514606      1.4231548      0.00020839942  74928.335    
     26000   0.93993778     0.0023323615  -0.0021777292   21.884849      20.489042      1.3958076      0.0088889834   75328.239    
     27000   0.9308188      0.0023323615  -0.00011239942  21.842252      20.459986      1.3822659      0.021612409    74404.308    
     28000   1.0149581      0.0023323615   0.0041996387   21.906846      20.399633      1.5072129      0.0064059022   75318.185    
     29000   0.92841138     0.0023323615  -2.5398808e-05  21.987185      20.608494      1.3786909      0.0046112484   75258.039    
     30000   1.021043       0.0023323615   0.001589158    22.097958      20.581709      1.5162489      0.016799508    73074.897    
     31000   1.0465985      0.0023323615  -0.0021744286   22.037917      20.483718      1.5541987      0.0057879149   75611.622    
     32000   0.98907108     0.0023323615  -0.0015558606   22.044089      20.575318      1.4687705      0.009448173    75254.126    
     33000   1.0918536      0.0023323615  -0.0025643847   22.039275      20.417873      1.6214025      0              74010.611    
     34000   0.99801543     0.0023323615   0.0016279766   21.932339      20.450286      1.4820529      0.017384617    76393.628    
     35000   1.0352271      0.0023323615  -0.0052971711   22.076004      20.538692      1.5373122      0.00010473809  75281.2      
     36000   1.1141579      0.0023323615  -0.00093279925  22.222491      20.567966      1.6545245      0.00033678641  76329.655    
     37000   1.0369415      0.0023323615   0.00013065175  22.217841      20.677983      1.5398581      0.013788831    75199.018    
     38000   1.0515596      0.0023323615   0.0021717558   22.070766      20.5092        1.561566       0.0067894678   75886.923    
     39000   1.0238495      0.0023323615   0.00026414509  22.040141      20.519725      1.5204165      0.00044464649  74989.58     
     40000   1.0749111      0.0023323615  -0.0026849368   22.039327      20.443084      1.596243       0.012651334    73273.654    
     41000   0.99070886     0.0023323615  -0.0030385564   22.03241       20.561207      1.4712027      0.00092855646  76763.474    
     42000   0.95315224     0.0023323615   0.0019788197   21.965263      20.549832      1.4154311      0.020233689    75160.228    
     43000   1.0644183      0.0023323615  -0.0011168725   22.287172      20.706511      1.5806611      0.039694129    75356.735    
     44000   1.0253747      0.0023323615  -0.006676522    22.066233      20.543552      1.5226814      0              74561.38     
     45000   0.94179556     0.0023323615  -0.0047206018   21.970644      20.572077      1.3985664      0.019869988    74751.623    
     46000   1.0083495      0.0023323615  -0.0017646918   21.972114      20.474715      1.497399       0.00026040605  74783.218    
     47000   0.98767959     0.0023323615  -0.00080218158  22.091674      20.62497       1.4667042      0.024266258    74457.647    
     48000   1.1473449      0.0023323615  -0.0025885687   22.080512      20.376705      1.7038072      0.00065962995  74732.093    
     49000   1.0679312      0.0023323615   0.0017688272   21.970482      20.384604      1.5858779      0.014142422    75952.411    
     50000   0.9581935      0.0023323615   0.0014398836   21.955202      20.532284      1.4229173      0.0055011948   75488.043    
     51000   1.0215759      0.0023323615  -0.00093292688  21.934681      20.41764       1.5170402      0              75496.609    
     52000   0.98079591     0.0023323615   0.0040701936   21.977374      20.520892      1.4564819      0.0020862422   76109.53     
     53000   1.0090927      0.0023323615   0.0013324753   22.095438      20.596935      1.4985027      0              75603.945    
     54000   0.97519627     0.0023323615   0.0013260734   22.070151      20.621984      1.4481665      0.026885444    76340.517    
     55000   1.1805087      0.0023323615  -0.001586238    22.424088      20.671033      1.7530554      0.024690954    75980.1      
     56000   0.98387121     0.0023323615   0.0037155145   22.104425      20.643376      1.4610487      0.01435493     75758.534    
     57000   1.0723812      0.0023323615  -0.0037916262   22.122726      20.53024       1.592486       0.013635549    75939.001    
     58000   1.0152349      0.0023323615   0.00021908047  22.082827      20.575203      1.5076238      0.00077375639  75719.229    
     59000   1.1424502      0.0023323615  -0.0052108657   22.30072       20.604182      1.6965385      0.013308184    76455.189    
     60000   1.0359703      0.0023323615  -0.00097887545  22.188218      20.649802      1.538416       0.00011346294  74517.847    
     61000   1.1646839      0.0023323615  -0.002085017    22.239945      20.51039       1.7295556      0.012918477    75888.311    
     62000   1.101836       0.0023323615   0.0010338878   22.171386      20.53516       1.6362265      0.001396566    75813.373    
     63000   0.96616435     0.0023323615   0.00097550571  21.903821      20.469067      1.4347541      0.013027663    76883.565    
     64000   1.0068907      0.0023323615  -0.0020278726   22.061652      20.566419      1.4952327      0.013750276    75729.911    
     65000   0.98723233     0.0023323615   0.0022441476   22.031073      20.565033      1.46604        0.0066686189   76386.608    
     66000   1.0273881      0.0023323615  -0.0003515278   22.183579      20.657908      1.5256713      0              74590.3      
     67000   0.96528212     0.0023323615  -0.00014822656  21.9396        20.506156      1.4334439      0.010365557    76526.821    
     68000   1.069702       0.0023323615   9.4754668e-05  22.081119      20.492611      1.5885075      0.00049153926  73765.461    
     69000   1.1229502      0.0023323615   0.0011504079   22.200329      20.532748      1.6675811      0.0068454249   76629.456    
     70000   1.0062775      0.0023323615  -0.00085311964  22.094021      20.599699      1.4943221      0.013222355    74974.484    
     71000   1.0906935      0.0023323615   0.00015260357  22.145362      20.525682      1.6196798      0.018338513    75677.26     
     72000   1.010401       0.0023323615  -6.0487182e-06  22.154105      20.653659      1.5004455      0.0013793953   74534.821    
     73000   1.1177599      0.0023323615  -0.0034084797   22.254435      20.594562      1.6598735      0.00011231735  77216.762    
     74000   0.9768019      0.0023323615   0.00016143893  22.07312       20.622569      1.4505508      0.0084515956   75080.734    
     75000   1.1360996      0.0023323615   0.002159116    22.161595      20.474487      1.6871079      0.0089909162   75696.548    
     76000   0.97379329     0.0023323615  -0.00068458621  21.988928      20.542845      1.446083       0              75137.086    
     77000   0.94876793     0.0023323615  -0.0016073976   21.923496      20.514575      1.4089204      0.017745108    75308.407    
     78000   0.83947996     0.0023323615  -0.00062768559  21.726727      20.480099      1.2466277      0.0054510099   75947.727    
     79000   1.0090614      0.0023323615  -0.00080262643  22.068192      20.569736      1.4984562      0.00023011166  76825.272    
     80000   1.1217643      0.0023323615  -0.0038177864   22.367902      20.702082      1.66582        0.032902439    75875.269    
     81000   1.0240158      0.0023323615   0.00023547123  22.031597      20.510933      1.5206635      0.0068767308   75615.23     
     82000   1.003236       0.0023323615  -0.0022802982   21.894199      20.404393      1.4898055      0.019136282    74683.67     
     83000   1.0554159      0.0023323615   0.004011718    22.104562      20.537269      1.5672927      0.0080869707   73996.953    
     84000   0.83527346     0.0023323615  -0.0034122221   21.874648      20.634267      1.2403811      0.0030083664   75313.971    
     85000   1.036002       0.0023323615   0.0013573923   21.962923      20.42446       1.5384629      0.015709144    76090.854    
     86000   0.9432002      0.0023323615  -0.0032183248   21.913588      20.512936      1.4006523      0.013730309    76073.39     
     87000   0.95566008     0.0023323615  -0.00049614223  21.91653       20.497375      1.4191552      0.0035862035   74789.941    
     88000   0.93373351     0.0023323615  -0.00097093893  21.870485      20.483891      1.3865943      0.0018212145   74628.275    
     89000   0.9684944      0.0023323615  -0.00047342045  21.973429      20.535215      1.4382142      0.00087524744  74824.704    
     90000   0.98293324     0.0023323615  -0.0032204602   22.050919      20.591263      1.4596559      0.015353933    76346.234    
     91000   1.0832827      0.0023323615   0.0048517083   22.11977       20.511095      1.6086749      0.0052867789   77228.17     
     92000   0.85899662     0.0023323615  -0.0013049519   21.765697      20.490087      1.27561        0.0024124001   75968.769    
     93000   0.96176266     0.0023323615  -4.4223672e-05  21.874222      20.446004      1.4282176      0.0045653365   76982.235    
     94000   0.96019503     0.0023323615   0.00024459347  21.944954      20.519064      1.4258896      3.8053462e-05  76163.719    
     95000   0.94702149     0.0023323615  -0.0033658915   21.86315       20.456823      1.4063269      0              76994.409    
     96000   0.91119348     0.0023323615  -0.0013197298   21.825018      20.471896      1.3531223      0.00043282989  75501.631    
     97000   1.0016687      0.0023323615  -0.0019514304   22.013024      20.525546      1.487478       0.0048369955   75348.031    
     98000   1.02143        0.0023323615  -0.0057874974   22.177965      20.661142      1.5168235      0              74136.442    
     99000   1.032786       0.0023323615   0.0018228259   21.975336      20.441649      1.5336871      7.1595851e-05  77049.153    
    100000   1.0594928      0.0023323615   0.0036169719   22.011024      20.437677      1.5733468      0.00032948157  75298.29     
    100362   1.1904942      0.0023323615  -0.00089755607  22.316856      20.548972      1.7678839      0.00063845255  74652.705    
Loop time of 1.32496 on 1 procs for 100000 steps with 100 atoms

Performance: 32604663.581 tau/day, 75473.758 timesteps/s
99.2% CPU use with 1 MPI tasks x 1 OpenMP threads

MPI task timing breakdown:
Section |  min time  |  avg time  |  max time  |%varavg| %total
---------------------------------------------------------------
Pair    | 0.049251   | 0.049251   | 0.049251   |   0.0 |  3.72
Bond    | 0.12545    | 0.12545    | 0.12545    |   0.0 |  9.47
Neigh   | 0.80295    | 0.80295    | 0.80295    |   0.0 | 60.60
Comm    | 0.058887   | 0.058887   | 0.058887   |   0.0 |  4.44
Output  | 0.0010511  | 0.0010511  | 0.0010511  |   0.0 |  0.08
Modify  | 0.25324    | 0.25324    | 0.25324    |   0.0 | 19.11
Other   |            | 0.03414    |            |       |  2.58

Nlocal:            100 ave         100 max         100 min
Histogram: 1 0 0 0 0 0 0 0 0 0
Nghost:             60 ave          60 max          60 min
Histogram: 1 0 0 0 0 0 0 0 0 0
Neighs:             36 ave          36 max          36 min
Histogram: 1 0 0 0 0 0 0 0 0 0

Total # of neighbors = 36
Ave neighs/atom = 0.36
Ave special neighs/atom = 1.98
Neighbor list builds = 9821
Dangerous builds = 8265
unfix           nvtSoft
unfix           rampSoft
reset_timestep  0

write_data      ${outputfile_relaxed}
write_data      5_relaxed.data
System init for write_data ...
Generated 0 of 6 mixed pair_coeff terms from geometric mixing rule
WARNING: Communication cutoff 1.3 is shorter than a bond length based estimate of 1.7550000000000001. This may lead to errors. (src/comm.cpp:727)
WARNING: Not all mixed pair coeffs generated from mixing. Use write_data with 'pair ij' option to store all pair coeffs. (src/write_data.cpp:309)

###########################################################################
# Full LJ with Coulomb
######################################################################

# Cutoffs and parameters:
# - Values: Marcel Verkade's Bachelor Thesis
# - Mapping to atom groups: Patrick Onck's paper
# - 1: aliphatic, 2: aromatic, 3: anion, 4: cation
# pair_style	lj/cut/coul/cut <lj_cut_global> <coul_cut_global>
# pair_coeff	<type_1>  <type_2>  <eps>  <sigma>  <r_cut_lj>  <r_cut_coul>

# Problem: Onck's model is much more complex, and Marcel has no sigma reported
# Using sigma=1 randomly

variable		glob_ljeps equal 1.0
variable		glob_ljsig 	equal 1.0
variable		glob_coulcut equal 10.0
variable		att_ljcut equal 2.50
variable		rep_ljcut equal 1.12

pair_style		lj/cut/coul/cut 						${att_ljcut} 	${glob_coulcut}
pair_style		lj/cut/coul/cut 						2.5 	${glob_coulcut}
pair_style		lj/cut/coul/cut 						2.5 	10
pair_coeff		1 1 	${glob_ljeps} 	${glob_ljsig}	${att_ljcut} 	${glob_coulcut}
pair_coeff		1 1 	1 	${glob_ljsig}	${att_ljcut} 	${glob_coulcut}
pair_coeff		1 1 	1 	1	${att_ljcut} 	${glob_coulcut}
pair_coeff		1 1 	1 	1	2.5 	${glob_coulcut}
pair_coeff		1 1 	1 	1	2.5 	10
pair_coeff		1 2 	${glob_ljeps} 	${glob_ljsig}	${att_ljcut} 	${glob_coulcut}
pair_coeff		1 2 	1 	${glob_ljsig}	${att_ljcut} 	${glob_coulcut}
pair_coeff		1 2 	1 	1	${att_ljcut} 	${glob_coulcut}
pair_coeff		1 2 	1 	1	2.5 	${glob_coulcut}
pair_coeff		1 2 	1 	1	2.5 	10
pair_coeff		1 3 	${glob_ljeps} 	${glob_ljsig}	${rep_ljcut} 	${glob_coulcut}
pair_coeff		1 3 	1 	${glob_ljsig}	${rep_ljcut} 	${glob_coulcut}
pair_coeff		1 3 	1 	1	${rep_ljcut} 	${glob_coulcut}
pair_coeff		1 3 	1 	1	1.12 	${glob_coulcut}
pair_coeff		1 3 	1 	1	1.12 	10
pair_coeff		1 4 	${glob_ljeps} 	${glob_ljsig}	${rep_ljcut} 	${glob_coulcut}
pair_coeff		1 4 	1 	${glob_ljsig}	${rep_ljcut} 	${glob_coulcut}
pair_coeff		1 4 	1 	1	${rep_ljcut} 	${glob_coulcut}
pair_coeff		1 4 	1 	1	1.12 	${glob_coulcut}
pair_coeff		1 4 	1 	1	1.12 	10
pair_coeff		2 2 	${glob_ljeps} 	${glob_ljsig}	${att_ljcut} 	${glob_coulcut}
pair_coeff		2 2 	1 	${glob_ljsig}	${att_ljcut} 	${glob_coulcut}
pair_coeff		2 2 	1 	1	${att_ljcut} 	${glob_coulcut}
pair_coeff		2 2 	1 	1	2.5 	${glob_coulcut}
pair_coeff		2 2 	1 	1	2.5 	10
pair_coeff		2 3 	${glob_ljeps} 	${glob_ljsig}	${rep_ljcut} 	${glob_coulcut}
pair_coeff		2 3 	1 	${glob_ljsig}	${rep_ljcut} 	${glob_coulcut}
pair_coeff		2 3 	1 	1	${rep_ljcut} 	${glob_coulcut}
pair_coeff		2 3 	1 	1	1.12 	${glob_coulcut}
pair_coeff		2 3 	1 	1	1.12 	10
pair_coeff		2 4 	${glob_ljeps} 	${glob_ljsig}	${att_ljcut} 	${glob_coulcut}
pair_coeff		2 4 	1 	${glob_ljsig}	${att_ljcut} 	${glob_coulcut}
pair_coeff		2 4 	1 	1	${att_ljcut} 	${glob_coulcut}
pair_coeff		2 4 	1 	1	2.5 	${glob_coulcut}
pair_coeff		2 4 	1 	1	2.5 	10
pair_coeff		3 3 	${glob_ljeps} 	${glob_ljsig}	${rep_ljcut} 	${glob_coulcut}
pair_coeff		3 3 	1 	${glob_ljsig}	${rep_ljcut} 	${glob_coulcut}
pair_coeff		3 3 	1 	1	${rep_ljcut} 	${glob_coulcut}
pair_coeff		3 3 	1 	1	1.12 	${glob_coulcut}
pair_coeff		3 3 	1 	1	1.12 	10
pair_coeff		3 4 	${glob_ljeps} 	${glob_ljsig}	${att_ljcut} 	${glob_coulcut}
pair_coeff		3 4 	1 	${glob_ljsig}	${att_ljcut} 	${glob_coulcut}
pair_coeff		3 4 	1 	1	${att_ljcut} 	${glob_coulcut}
pair_coeff		3 4 	1 	1	2.5 	${glob_coulcut}
pair_coeff		3 4 	1 	1	2.5 	10
pair_coeff		4 4 	${glob_ljeps} 	${glob_ljsig}	${rep_ljcut} 	${glob_coulcut}
pair_coeff		4 4 	1 	${glob_ljsig}	${rep_ljcut} 	${glob_coulcut}
pair_coeff		4 4 	1 	1	${rep_ljcut} 	${glob_coulcut}
pair_coeff		4 4 	1 	1	1.12 	${glob_coulcut}
pair_coeff		4 4 	1 	1	1.12 	10


fix             noDriftRot 	all momentum 10 linear 1 1 1 angular
fix             nvt1 		all nvt temp ${Temp} ${Temp} 0.5
fix             nvt1 		all nvt temp 1 ${Temp} 0.5
fix             nvt1 		all nvt temp 1 1 0.5

# dump          assemble 	all custom 1000 				${outputfile_selfasb} id type xu yu zu vx vy vz
dump            lindump 	all custom ${subsample_rate} 	${outputfile_trajlin} id type xu yu zu vx vy vz
dump            lindump 	all custom 1000 	${outputfile_trajlin} id type xu yu zu vx vy vz
dump            lindump 	all custom 1000 	6_b_trajlin.data id type xu yu zu vx vy vz

run             ${runtime}
run             1000000
Generated 0 of 6 mixed pair_coeff terms from geometric mixing rule
Neighbor list info ...
  update every 1 steps, delay 10 steps, check yes
  max neighbors/atom: 2000, page size: 100000
  master list distance cutoff = 10.3
  ghost atom cutoff = 10.3
  binsize = 5.15, bins = 7 7 7
  1 neighbor lists, perpetual/occasional/extra = 1 0 0
  (1) pair lj/cut/coul/cut, perpetual
      attributes: half, newton on
      pair build: half/bin/newton
      stencil: half/bin/3d
      bin: standard
Per MPI rank memory allocation (min/avg/max) = 7.712 | 7.712 | 7.712 Mbytes
   Step          Temp         Density         Press          TotEng         PotEng         KinEng         E_pair         S/CPU     
         0   1.1904942      0.0023323615  -0.0013741722   21.920235      20.152351      1.7678839     -0.39598263     0            
      1000   1.0341246      0.0023323615   0.0047147568   21.474972      19.939297      1.535675      -0.60771455     33336.784    
      2000   0.94648779     0.0023323615   0.00025036217  21.096949      19.691415      1.4055344     -0.73387867     30896.576    
      3000   1.0496475      0.0023323615  -0.0025870044   21.153132      19.594405      1.5587266     -0.94508263     26451.17     
      4000   1.095923       0.0023323615   0.0014577192   21.049059      19.421613      1.6274456     -1.117807       20846.738    
      5000   1.0098279      0.0023323615   0.00046782356  20.688191      19.188596      1.4995944     -1.3241777      18875.187    
      6000   1.097384       0.0023323615   0.00044275092  20.607738      18.978123      1.6296152     -1.49768        18427.117    
      7000   1.2390155      0.0023323615   0.0019554767   21.123085      19.283147      1.8399381     -1.1853697      18257.127    
      8000   0.95973422     0.0023323615   0.00024814686  20.802566      19.37736       1.4252053     -1.1831144      18625.266    
      9000   0.90800295     0.0023323615  -0.00049750324  20.610277      19.261892      1.3483844     -1.2869052      18503.658    
     10000   0.93301333     0.0023323615  -0.0023648787   20.807336      19.421811      1.3855248     -1.0845516      18467.939    
     11000   0.90131601     0.0023323615  -0.00094462843  20.911397      19.572943      1.3384543     -1.0157122      18501.329    
     12000   0.86741214     0.0023323615  -0.0047402037   20.610172      19.322064      1.288107      -1.1720561      18491.941    
     13000   0.95299908     0.0023323615  -0.0034461106   20.628566      19.213363      1.4152036     -1.2919419      18495.539    
     14000   0.98239775     0.0023323615  -0.00067189514  20.852275      19.393415      1.4588607     -1.2208578      18707.139    
     15000   0.8926595      0.0023323615   0.0036290345   20.459881      19.134282      1.3255994     -1.3484193      18506.942    
     16000   0.94028442     0.0023323615  -0.0024399312   20.685125      19.288803      1.3963224     -1.261642       18251.441    
     17000   0.87915281     0.0023323615   0.0042536022   20.582563      19.277021      1.3055419     -1.2606093      18238.344    
     18000   1.0441147      0.0023323615   0.00085591597  20.667084      19.116573      1.5505103     -1.2644244      18463.013    
     19000   0.89331741     0.0023323615  -0.00067660022  20.725598      19.399022      1.3265763     -1.1151898      18508.644    
     20000   0.91337079     0.0023323615  -0.00064983843  20.852201      19.495846      1.3563556     -1.0265359      18405.211    
     21000   1.0727329      0.0023323615  -0.00056771749  20.928178      19.33517       1.5930083     -1.1920844      18467.898    
     22000   1.027789       0.0023323615   0.00017905927  20.748907      19.22264       1.5262667     -1.2491763      18377.735    
     23000   0.98854582     0.0023323615   0.0015280419   20.85956       19.391569      1.4679905     -1.2173084      18407.808    
     24000   0.90953056     0.0023323615   0.0022151411   20.261384      18.910731      1.3506529     -1.4946395      18317.338    
     25000   0.99283827     0.0023323615  -0.0033950576   20.673007      19.198642      1.4743648     -1.3217317      18310.661    
     26000   1.0017933      0.0023323615   0.00034936683  20.520164      19.032501      1.4876631     -1.4563513      18564.474    
     27000   1.1665083      0.0023323615   0.00052262101  20.917341      19.185076      1.7322648     -1.3216667      18549.735    
     28000   0.9646552      0.0023323615   0.00084609504  20.710572      19.278059      1.432513      -1.2459206      18517.128    
     29000   0.82438882     0.0023323615  -0.0023264421   20.179308      18.95509       1.2242174     -1.4561445      18354.764    
     30000   1.0962299      0.0023323615   0.0027929583   20.449179      18.821278      1.6279014     -1.5801037      18334.03     
     31000   1.017515       0.0023323615  -0.0002831954   20.755433      19.244423      1.5110097     -1.3595173      18374.034    
     32000   0.99148931     0.0023323615   0.0022805303   20.754268      19.281906      1.4723616     -1.2660176      18449.4      
     33000   0.97814688     0.0023323615  -0.00012797181  20.636694      19.184146      1.4525481     -1.3006851      18318.497    
     34000   1.157572       0.0023323615  -0.00068506372  20.977318      19.258324      1.7189944     -1.3119218      18302.516    
     35000   0.94830023     0.0023323615   0.0012571424   20.625113      19.216887      1.4082258     -1.2126442      18574.679    
     36000   0.94899005     0.0023323615   0.0052628385   20.760356      19.351106      1.4092502     -1.2815018      18758.395    
     37000   1.0350093      0.0023323615  -0.0010902406   21.012308      19.475319      1.5369888     -1.0927372      18598.987    
     38000   0.95283808     0.0023323615   0.0036590139   20.723436      19.308471      1.4149645     -1.1530885      18629.08     
     39000   0.97558542     0.0023323615  -0.00067081969  20.916372      19.467627      1.4487443     -1.1043024      18578.33     
     40000   1.2504242      0.0023323615   0.0018126778   21.133598      19.276719      1.8568799     -1.165085       18457.745    
     41000   0.94125038     0.0023323615  -0.0026965515   20.572417      19.17466       1.3977568     -1.2902603      18885.455    
     42000   0.9556842      0.0023323615  -0.00092872294  20.614178      19.194987      1.419191      -1.2316024      18820.218    
     43000   0.86628939     0.0023323615  -0.0010259324   20.439158      19.152719      1.2864397     -1.3814675      18543.649    
     44000   1.0909852      0.0023323615  -0.00096715279  21.036695      19.416582      1.620113      -1.052032       18601.912    
     45000   0.89457371     0.0023323615  -0.00035279178  20.867279      19.538837      1.328442      -1.0228089      18520.757    
     46000   0.94610199     0.0023323615  -0.0023282096   20.820739      19.415778      1.4049615     -1.1397246      18556.405    
     47000   0.98325073     0.0023323615  -0.001874617    20.72637       19.266242      1.4601273     -1.1888583      18601.68     
     48000   1.0213804      0.0023323615  -0.0042877967   20.903363      19.386613      1.5167498     -1.1516267      18605.505    
     49000   1.0516949      0.0023323615  -0.00083006114  20.622462      19.060695      1.5617669     -1.3803294      18394.74     
     50000   0.95722527     0.0023323615  -0.0022456417   20.545585      19.124106      1.4214795     -1.4126479      18447.337    
     51000   0.9635661      0.0023323615   0.0008681643   20.625616      19.19472       1.4308957     -1.2569927      18348.711    
     52000   0.95123112     0.0023323615   0.00048524466  20.56772       19.155142      1.4125782     -1.33281        18276.773    
     53000   1.0186255      0.0023323615   0.0022743882   20.742708      19.230049      1.5126588     -1.3315955      18200.814    
     54000   1.002302       0.0023323615   0.00090570415  20.763651      19.275232      1.4884185     -1.2282479      18382.392    
     55000   0.93301392     0.0023323615  -0.0016515574   20.505958      19.120433      1.3855257     -1.4460474      18349.568    
     56000   0.98203303     0.0023323615   0.00028881398  20.626351      19.168032      1.458319      -1.4477995      18499.903    
     57000   1.0396523      0.0023323615  -0.0013693598   20.93217       19.388286      1.5438836     -1.1267308      18648.324    
     58000   0.96551614     0.0023323615  -0.0036291953   20.697419      19.263628      1.4337915     -1.3437623      18850.291    
     59000   1.251448       0.0023323615   0.0034926305   20.974034      19.115634      1.8584003     -1.3310794      18670.247    
     60000   1.0325712      0.0023323615   0.00098268919  21.001413      19.468045      1.5333683     -1.0836083      18493.027    
     61000   0.98278394     0.0023323615   0.0019941189   20.658978      19.199544      1.4594342     -1.2334669      18573.338    
     62000   0.93739183     0.0023323615   0.0046993207   20.960001      19.567974      1.3920269     -1.0298726      18523.798    
     63000   0.89571604     0.0023323615   0.0021110597   20.716869      19.38673       1.3301383     -1.2018902      18579.157    
     64000   0.91671981     0.0023323615  -0.00030884647  20.573146      19.211818      1.3613289     -1.3022809      18684.206    
     65000   1.1872799      0.0023323615  -0.0017683122   21.011418      19.248307      1.7631106     -1.3546572      18617.196    
     66000   0.99764843     0.0023323615  -0.0032688246   20.833254      19.351746      1.4815079     -1.1904431      18340.457    
     67000   1.0150883      0.0023323615   0.0025318828   20.558591      19.051185      1.5074062     -1.4525766      18302.348    
     68000   1.0393594      0.0023323615  -0.0016290374   20.555719      19.012271      1.5434487     -1.5194059      18427.944    
     69000   1.0811356      0.0023323615  -0.001822212    20.574093      18.968606      1.6054864     -1.5634542      18375.265    
     70000   0.90260787     0.0023323615  -0.0014638981   20.157776      18.817404      1.3403727     -1.5837899      18446.29     
     71000   1.0932148      0.0023323615  -0.0058233632   20.643356      19.019932      1.623424      -1.5014245      18308.542    
     72000   1.139911       0.0023323615  -0.00075539697  20.684277      18.99151       1.6927678     -1.5492772      18463.399    
     73000   1.0021343      0.0023323615  -0.0013882245   20.584669      19.0965        1.4881695     -1.4382039      18484.52     
     74000   0.93661073     0.0023323615   0.0019539225   20.605323      19.214457      1.3908669     -1.3490171      18533.98     
     75000   1.0168407      0.0023323615  -0.0028593693   20.562424      19.052416      1.5100084     -1.4605328      18615.596    
     76000   0.89615594     0.0023323615  -0.0040003194   20.839954      19.509163      1.3307916     -1.1241813      18499.992    
     77000   0.93835031     0.0023323615  -0.0021627106   20.494102      19.100652      1.3934502     -1.4439966      18527.224    
     78000   0.94564575     0.0023323615  -0.0023159519   20.404188      18.999904      1.4042839     -1.4682554      18354.693    
     79000   1.0094354      0.0023323615   0.00080909597  20.438591      18.939579      1.4990116     -1.6090037      18375.708    
     80000   1.0982233      0.0023323615   0.001424848    20.825049      19.194187      1.6308616     -1.3557075      18524.827    
     81000   0.95948616     0.0023323615  -0.00084912093  20.294233      18.869396      1.4248369     -1.5131042      18523.451    
     82000   1.2119302      0.0023323615   0.00025255036  21.279878      19.480161      1.7997164     -1.0178695      19083.709    
     83000   1.0702473      0.0023323615   0.0010537404   21.045748      19.456431      1.5893172     -1.2335773      19142.763    
     84000   1.0618737      0.0023323615  -0.0031136388   20.424023      18.847141      1.5768824     -1.6809225      18743.234    
     85000   1.000178       0.0023323615  -0.0034099939   20.512395      19.027131      1.4852643     -1.555389       18488.766    
     86000   0.87935779     0.0023323615   0.00055141311  20.204464      18.898617      1.3058463     -1.5539731      18489.379    
     87000   0.95563752     0.0023323615  -0.0031590205   20.753356      19.334234      1.4191217     -1.1826478      18495.731    
     88000   0.98573567     0.0023323615  -0.0017312048   20.672496      19.208678      1.4638175     -1.389426       18587.28     
     89000   1.0935899      0.0023323615  -0.00072408682  20.730301      19.10632       1.623981      -1.3663048      18522.328    
     90000   1.0720738      0.0023323615  -0.00020209565  20.844942      19.252913      1.5920297     -1.390217       18490.204    
     91000   1.1831818      0.0023323615  -0.00091518033  21.163074      19.406049      1.757025      -1.1257389      18443.407    
     92000   1.0275309      0.0023323615   0.0035892422   20.920069      19.394186      1.5258835     -1.173635       18564.584    
     93000   0.97667576     0.0023323615   0.0013865497   20.669228      19.218864      1.4503635     -1.2984976      18473.316    
     94000   0.99198325     0.0023323615  -0.00030626396  20.725218      19.252123      1.4730951     -1.2844068      18342.369    
     95000   1.1634417      0.0023323615  -0.0015642596   20.930704      19.202993      1.7277109     -1.2575593      18426.26     
     96000   1.0021745      0.0023323615  -0.00010383755  20.559642      19.071413      1.4882292     -1.3982052      18262.625    
     97000   1.1492499      0.0023323615  -0.0024851191   20.872478      19.165842      1.706636      -1.3932855      18175.929    
     98000   0.9639374      0.0023323615   0.0043392214   20.619176      19.187729      1.431447      -1.4615431      18351.457    
     99000   1.0818995      0.0023323615  -0.0024815978   21.016676      19.410055      1.6066208     -1.1927069      18353.796    
    100000   0.9990165      0.0023323615  -0.00076913941  20.545634      19.062094      1.4835395     -1.5322315      18570.743    
    101000   1.1675342      0.0023323615  -0.0023986126   20.814823      19.081035      1.7337883     -1.47037        18750.164    
    102000   1.0372287      0.0023323615   0.00032993643  20.500664      18.960379      1.5402846     -1.5028562      18463.597    
    103000   1.0410634      0.0023323615   0.0013300641   20.838809      19.29283       1.5459792     -1.2522053      18436.74     
    104000   1.1514216      0.0023323615  -0.0058191926   20.96603       19.256169      1.7098611     -1.2801736      18560.676    
    105000   0.98323762     0.0023323615   0.0025999125   20.530908      19.0708        1.4601079     -1.4600987      18591.497    
    106000   1.0024345      0.0023323615   0.00046497578  20.300208      18.811592      1.4886153     -1.6838847      18425.403    
    107000   1.0129156      0.0023323615   0.00071502727  20.676557      19.172377      1.5041797     -1.394209       18388.769    
    108000   1.0471325      0.0023323615   0.0042171119   20.595847      19.040855      1.5549917     -1.4448713      18469.388    
    109000   1.0488533      0.0023323615  -0.0034189756   20.666478      19.108931      1.5575472     -1.432291       18497.956    
    110000   0.92058602     0.0023323615   0.0032570614   20.28134       18.91427       1.3670702     -1.7093855      18224.784    
    111000   1.033935       0.0023323615  -0.0005345595   20.683138      19.147744      1.5353935     -1.4705803      18215.694    
    112000   0.95632759     0.0023323615  -0.00026193458  20.710888      19.290742      1.4201465     -1.2506117      18333.804    
    113000   1.0566222      0.0023323615   0.0029079393   20.720927      19.151843      1.569084      -1.3192378      18322.963    
    114000   1.0471986      0.0023323615  -0.00084874242  20.404581      18.849491      1.5550899     -1.6386053      18370.436    
    115000   0.9627863      0.0023323615   0.00020754758  20.332353      18.902616      1.4297377     -1.5110043      18364.737    
    116000   1.0076332      0.0023323615   0.0017932739   20.525445      19.02911       1.4963354     -1.4994673      18381.464    
    117000   0.99855219     0.0023323615  -0.00041402939  20.477345      18.994495      1.48285       -1.4100611      18452.558    
    118000   0.91091478     0.0023323615   0.0021617224   20.290553      18.937845      1.3527085     -1.5680792      18508.482    
    119000   1.0909368      0.0023323615  -8.9733567e-05  20.582182      18.962141      1.6200412     -1.5226033      18373.357    
    120000   0.96533481     0.0023323615  -0.0028381727   20.737201      19.303679      1.4335222     -1.3772368      18343.575    
    121000   0.88509314     0.0023323615   1.5827734e-05  20.658937      19.344574      1.3143633     -1.1985663      18476.486    
    122000   0.90865549     0.0023323615   0.0055559158   20.183753      18.8344        1.3493534     -1.7311002      18540.662    
    123000   1.0369224      0.0023323615   7.471991e-05   20.59398       19.05415       1.5398297     -1.4748002      18317.738    
    124000   0.97276566     0.0023323615  -0.0023595417   20.701         19.256443      1.444557      -1.3584108      18448.319    
    125000   1.108878       0.0023323615  -0.00036316789  20.674359      19.027675      1.6466839     -1.5594932      18473.148    
    126000   1.0622252      0.0023323615  -0.0021043265   20.592477      19.015072      1.5774044     -1.4373888      18482.103    
    127000   0.94069638     0.0023323615   0.0018836515   20.426509      19.029575      1.3969341     -1.3952115      18528.214    
    128000   1.0303881      0.0023323615  -0.0020339011   20.46832       18.938194      1.5301263     -1.4884451      18519.623    
    129000   0.97598143     0.0023323615   0.0044459579   20.339623      18.890291      1.4493324     -1.693213       18316.454    
    130000   1.0621399      0.0023323615  -0.001613797    20.334026      18.756748      1.5772777     -1.7323108      18230.992    
    131000   0.8729614      0.0023323615  -0.0037853692   20.257838      18.961491      1.2963477     -1.6092525      18258.853    
    132000   1.0471769      0.0023323615  -0.0009565896   20.525978      18.97092       1.5550577     -1.6063357      18408.925    
    133000   1.1186669      0.0023323615   0.0017468511   20.596878      18.935658      1.6612203     -1.5217496      18427.383    
    134000   0.97646867     0.0023323615   0.0025504693   20.628216      19.17816       1.450056      -1.3381946      18498.041    
    135000   0.94669448     0.0023323615  -0.0010270723   20.243736      18.837894      1.4058413     -1.6968875      18487.557    
    136000   0.92802568     0.0023323615   0.0016146141   20.648251      19.270133      1.3781181     -1.2439706      18414.807    
    137000   0.96044123     0.0023323615   0.00063097003  20.576625      19.150369      1.4262552     -1.4172115      18529.239    
    138000   0.96307411     0.0023323615   0.0021206319   20.792318      19.362153      1.430165      -1.1385527      18550.269    
    139000   1.1171838      0.0023323615  -0.0014224261   20.911867      19.252849      1.659018      -1.2110449      18509.958    
    140000   1.023126       0.0023323615   0.0020868813   20.627347      19.108005      1.5193421     -1.4113275      18403.962    
    141000   1.1080833      0.0023323615  -0.0031439509   20.657861      19.012358      1.6455037     -1.5404531      18328.061    
    142000   0.94246059     0.0023323615   0.0022134699   20.368738      18.969184      1.399554      -1.450672       18401.007    
    143000   1.0274219      0.0023323615   0.0026363005   20.736855      19.211133      1.5257216     -1.2759354      18420.52     
    144000   1.0287317      0.0023323615   0.0031501284   20.660471      19.132805      1.5276665     -1.4600113      18245.249    
    145000   1.0770813      0.0023323615   0.00014586879  20.432441      18.832975      1.5994658     -1.678646       18312.495    
    146000   1.0088108      0.0023323615   0.0008816521   20.797694      19.29961       1.498084      -1.2993481      18203.877    
    147000   1.0462709      0.0023323615   0.0015536811   20.664614      19.110902      1.5537123     -1.3877291      18505.243    
    148000   1.0218834      0.0023323615   0.0013218448   20.55825       19.040753      1.5174969     -1.3265504      18470.441    
    149000   1.0130595      0.0023323615   0.005787005    20.622196      19.117803      1.5043933     -1.4858978      18385.307    
    150000   1.0744859      0.0023323615  -0.00075828415  20.607403      19.011792      1.5956115     -1.4474179      18394.947    
    151000   0.86728592     0.0023323615   0.0026817885   20.284977      18.997057      1.2879196     -1.3864226      18331.215    
    152000   1.0051823      0.0023323615   0.00051918963  20.497966      19.00527       1.4926957     -1.5093935      18494.055    
    153000   0.94669576     0.0023323615  -0.00010063601  20.454869      19.049025      1.4058432     -1.415878       18450.481    
    154000   1.017212       0.0023323615  -0.0025205204   20.726956      19.216397      1.5105598     -1.3607179      18313.201    
    155000   1.1197575      0.0023323615   0.0058807158   20.599532      18.936692      1.6628399     -1.5842604      18377.911    
    156000   1.026294       0.0023323615  -0.0047902152   20.714251      19.190205      1.5240467     -1.3315916      18480.427    
    157000   1.0345379      0.0023323615  -0.0031453367   21.027997      19.491708      1.5362888     -1.1891464      18546.047    
    158000   1.1155329      0.0023323615   0.00043806395  20.953567      19.297001      1.6565663     -1.2476422      18577.037    
    159000   1.0316286      0.0023323615  -0.0024428359   21.026166      19.494197      1.5319685     -1.2182212      18605.724    
    160000   1.0058983      0.0023323615   0.0022494863   20.596086      19.102327      1.4937589     -1.4043219      18561.974    
    161000   1.0726531      0.0023323615  -0.00030650298  20.521831      18.928941      1.5928898     -1.5648692      18474.205    
    162000   0.87795397     0.0023323615  -0.0026913279   20.339105      19.035343      1.3037617     -1.5680457      18416.258    
    163000   0.98355867     0.0023323615  -0.0015213667   20.502625      19.04204       1.4605846     -1.5232913      18276.121    
    164000   1.0210532      0.0023323615  -0.005025652    20.648047      19.131783      1.516264      -1.4991681      18305.382    
    165000   0.99722231     0.0023323615  -0.00097634154  20.699792      19.218917      1.4808751     -1.5025248      18448.523    
    166000   1.0095627      0.0023323615  -0.00077968936  20.676124      19.176924      1.4992005     -1.4687109      18627.13     
    167000   1.089816       0.0023323615  -0.0041901684   20.583628      18.965251      1.6183768     -1.5535473      18467.218    
    168000   1.0050355      0.0023323615  -0.0022696319   20.844391      19.351913      1.4924777     -1.2858514      18445.772    
    169000   1.0423957      0.0023323615   0.0012531679   20.625383      19.077425      1.5479576     -1.4912301      18473.972    
    170000   1.0495433      0.0023323615   0.0014356338   20.639102      19.080531      1.5585717     -1.4752307      18440.47     
    171000   0.99247319     0.0023323615   0.00046023457  20.848041      19.374219      1.4738227     -1.161959       18479.551    
    172000   0.94035772     0.0023323615   0.0059560787   20.532537      19.136106      1.3964312     -1.3430715      18446.375    
    173000   0.8795142      0.0023323615  -0.0012341906   20.579673      19.273595      1.3060786     -1.1945053      18520.925    
    174000   1.0414666      0.0023323615   0.0016172399   20.680895      19.134317      1.5465778     -1.2696653      18986.332    
    175000   0.98994519     0.0023323615  -0.00023262474  20.857021      19.386953      1.4700686     -1.2006321      18978.336    
    176000   0.95311296     0.0023323615  -0.0017037175   20.675681      19.260308      1.4153728     -1.1499652      18779.076    
    177000   0.91105185     0.0023323615   0.0026743822   20.718341      19.365429      1.352912      -1.143029       18427.087    
    178000   0.92161049     0.0023323615   0.0019623661   20.638045      19.269453      1.3685916     -1.2235926      18654.9      
    179000   0.87754243     0.0023323615   0.0039156745   20.292907      18.989756      1.3031505     -1.4582863      18484.835    
    180000   0.95170744     0.0023323615  -0.00032505207  20.397944      18.984658      1.4132855     -1.3955053      18527.571    
    181000   0.99480479     0.0023323615  -0.003123709    20.838003      19.360718      1.4772851     -1.2348357      18418.892    
    182000   0.76835992     0.0023323615  -0.0008660664   20.42308       19.282066      1.1410145     -1.1506273      18582.827    
    183000   1.077581       0.0023323615   5.3558384e-05  20.723314      19.123106      1.6002077     -1.3219269      18691.466    
    184000   1.0918466      0.0023323615  -0.00060326305  20.864084      19.242692      1.6213922     -1.3514157      18503.24     
    185000   1.096395       0.0023323615   0.00051939204  20.808059      19.179912      1.6281465     -1.3072749      18510.569    
    186000   1.0026306      0.0023323615  -0.0029224759   20.858974      19.370067      1.4889064     -1.1873226      18492.04     
    187000   0.96223541     0.0023323615  -0.0014922766   20.636469      19.207549      1.4289196     -1.3044827      18533.185    
    188000   1.1048223      0.0023323615   0.0014966523   20.972183      19.331522      1.6406612     -1.2482902      18342.284    
    189000   1.0801816      0.0023323615  -0.00071198786  20.730147      19.126078      1.6040696     -1.2931016      18323.791    
    190000   1.038376       0.0023323615  -0.0051152198   20.957481      19.415493      1.5419884     -1.3788188      18468.732    
    191000   0.91470901     0.0023323615   0.0015790571   20.37083       19.012487      1.3583429     -1.5870088      18476.322    
    192000   1.0720551      0.0023323615  -0.0058725015   20.683169      19.091167      1.5920019     -1.4992503      18359.957    
    193000   1.0745221      0.0023323615   0.002732728    20.841381      19.245716      1.5956653     -1.3237324      18455.08     
    194000   1.0190737      0.0023323615   0.001393891    20.366614      18.853289      1.5133244     -1.5901653      18312.801    
    195000   0.99279148     0.0023323615  -0.003522515    20.557834      19.083539      1.4742954     -1.5134794      18422.383    
    196000   1.0048371      0.0023323615  -0.0033949732   20.472252      18.980069      1.4921832     -1.5867511      18511.029    
    197000   0.99837288     0.0023323615  -0.005370291    20.847731      19.365147      1.4825837     -1.3809042      18425.968    
    198000   0.96986951     0.0023323615   0.0046454287   20.675492      19.235236      1.4402562     -1.3064262      18493.26     
    199000   0.93347548     0.0023323615  -0.00035764638  20.437209      19.050998      1.3862111     -1.3609461      18618.141    
    200000   0.95414807     0.0023323615   0.00069526079  20.783122      19.366212      1.4169099     -1.3750385      18680.349    
    201000   1.1036369      0.0023323615  -0.001442165    20.739972      19.101072      1.6389008     -1.3909469      18684.272    
    202000   0.82106043     0.0023323615  -0.0019650932   20.753697      19.534422      1.2192747     -0.96365628     18628.673    
    203000   0.89836187     0.0023323615  -0.0023115003   20.52164       19.187573      1.3340674     -1.3548031      18464.048    
    204000   0.96045476     0.0023323615   0.00073713812  20.715892      19.289616      1.4262753     -1.2872756      18361.656    
    205000   0.98838411     0.0023323615   0.0050682076   20.372902      18.905151      1.4677504     -1.5158846      18359.157    
    206000   1.0391733      0.0023323615   0.0052300743   20.882324      19.339152      1.5431724     -1.1952376      18498.963    
    207000   0.99670878     0.0023323615   0.0007351161   20.35546       18.875348      1.4801125     -1.4942896      18350.263    
    208000   0.86643563     0.0023323615  -0.0004640054   20.408573      19.121916      1.2866569     -1.3696275      18452.268    
    209000   1.0672891      0.0023323615  -0.0039320909   20.828897      19.243972      1.5849244     -1.2429406      18555.822    
    210000   1.0751881      0.0023323615   0.0065936167   20.632091      19.035437      1.5966543     -1.5488628      18613.613    
    211000   0.9613209      0.0023323615  -0.00081583574  20.674673      19.247111      1.4275615     -1.2761744      18543.721    
    212000   0.93057235     0.0023323615   0.00076975735  20.712851      19.330951      1.3818999     -1.1471871      18581.937    
    213000   0.94818469     0.0023323615   0.00059507911  20.662838      19.254783      1.4080543     -1.2522543      18581.498    
    214000   0.88059181     0.0023323615   0.0026974745   20.505701      19.198022      1.3076788     -1.2457619      18468.223    
    215000   1.0294603      0.0023323615  -0.00069165019  20.728183      19.199435      1.5287485     -1.2849185      18542.877    
    216000   1.0431776      0.0023323615   4.3795527e-05  20.579269      19.030151      1.5491188     -1.5740807      18476.958    
    217000   0.92888534     0.0023323615   0.001653551    20.848042      19.468648      1.3793947     -1.1052551      18499.57     
    218000   0.967065       0.0023323615   0.0047279508   20.602894      19.166802      1.4360915     -1.3368016      18386.795    
    219000   0.95805149     0.0023323615  -8.8319063e-05  20.45763       19.034923      1.4227065     -1.3600994      18412.874    
    220000   0.97989768     0.0023323615   0.0014380254   20.623387      19.168239      1.4551481     -1.3867821      18388.535    
    221000   0.95341911     0.0023323615  -0.0020699344   20.418004      19.002177      1.4158274     -1.475084       18400.377    
    222000   1.0358068      0.0023323615   0.00080096462  20.38759       18.849417      1.5381731     -1.5550309      18397.408    
    223000   0.96560476     0.0023323615   0.0028964127   20.623012      19.189089      1.4339231     -1.4432562      18389.389    
    224000   1.0032832      0.0023323615  -0.0014873409   20.768058      19.278183      1.4898755     -1.3092468      18343.194    
    225000   0.91772767     0.0023323615  -0.00059415543  20.438666      19.075841      1.3628256     -1.4432128      18430.169    
    226000   1.0958497      0.0023323615  -0.00065313022  20.78509       19.157753      1.6273368     -1.3250677      18529.487    
    227000   1.0149447      0.0023323615   0.00045574054  20.513072      19.005879      1.5071929     -1.3960616      18473.1      
    228000   1.0098354      0.0023323615  -0.0020248808   20.611524      19.111918      1.4996056     -1.3778484      18551.566    
    229000   1.0062418      0.0023323615  -0.0013342942   20.599338      19.105069      1.4942691     -1.3827975      18523.128    
    230000   1.0667576      0.0023323615  -0.0016237109   20.913142      19.329007      1.584135      -1.2843847      18506.351    
    231000   0.95401397     0.0023323615  -0.00060729021  20.409395      18.992685      1.4167107     -1.5283739      18633.361    
    232000   1.0256598      0.0023323615   0.00013822606  20.610054      19.086949      1.5231049     -1.2933011      18502.046    
    233000   1.0304853      0.0023323615  -0.002220815    20.531149      19.000878      1.5302706     -1.5568481      18341.222    
    234000   1.254399       0.0023323615   0.0016092537   21.080893      19.21811       1.8627825     -1.2279741      18392.832    
    235000   1.1252815      0.0023323615   0.0011720403   20.959306      19.288263      1.671043      -1.2135763      18357.792    
    236000   1.1004193      0.0023323615   0.00063926974  20.830958      19.196836      1.6341227     -1.38258        18401.662    
    237000   1.0667984      0.0023323615   0.0039069657   20.595239      19.011044      1.5841957     -1.528521       18316.245    
    238000   0.92424863     0.0023323615   0.0020803436   20.499934      19.127425      1.3725092     -1.3046171      18367.849    
    239000   1.0069726      0.0023323615  -0.002729259    20.308167      18.812812      1.4953543     -1.6811745      18292.915    
    240000   0.94450415     0.0023323615   0.0014359267   20.378373      18.975784      1.4025887     -1.4898971      18191.346    
    241000   1.0281587      0.0023323615   0.0039915509   20.490816      18.964         1.5268157     -1.4117574      18361.237    
    242000   1.0634339      0.0023323615  -0.00086918663  20.8729        19.2937        1.5791994     -1.2789974      18360.18     
    243000   0.96784903     0.0023323615   0.0016442093   20.587935      19.150679      1.4372558     -1.3056016      18433.58     
    244000   0.94223726     0.0023323615   0.00065838937  20.428617      19.029395      1.3992223     -1.5028588      18450.171    
    245000   1.0096697      0.0023323615  -0.0023018908   20.638171      19.138812      1.4993595     -1.4683836      18373.986    
    246000   0.87477432     0.0023323615   0.0022741076   20.210543      18.911503      1.2990399     -1.6429196      18287.69     
    247000   1.0417791      0.0023323615  -0.0040549764   20.578025      19.030983      1.5470419     -1.4898141      18153.608    
    248000   1.188337       0.0023323615  -0.0021674015   20.82807       19.06339       1.7646805     -1.3759956      18323.226    
    249000   1.0618687      0.0023323615   0.0022207419   20.755165      19.17829       1.576875      -1.2587071      18538.837    
    250000   1.164785       0.0023323615   0.0041862889   20.951126      19.22142       1.7297057     -1.3351468      18535.901    
    251000   1.1913033      0.0023323615   0.0037586654   20.746142      18.977056      1.7690855     -1.4477099      18341.907    
    252000   0.93553247     0.0023323615   0.0021951205   20.897364      19.508098      1.3892657     -1.2031699      18419.007    
    253000   1.052361       0.0023323615  -0.0017914019   20.888281      19.325525      1.5627561     -1.0600461      18935.614    
    254000   0.8792927      0.0023323615  -0.0022171607   20.506144      19.200395      1.3057497     -1.3271928      18966.947    
    255000   1.0755517      0.0023323615  -0.00083317172  20.831175      19.23398       1.5971943     -1.27656        18504.296    
    256000   1.0265085      0.0023323615   0.0037135099   20.477206      18.952841      1.5243651     -1.4567352      18428.009    
    257000   0.98517044     0.0023323615   0.0010924114   20.686111      19.223133      1.4629781     -1.321369       18629.58     
    258000   1.0094646      0.0023323615  -0.0024864046   20.936172      19.437117      1.4990549     -1.2459982      18551.718    
    259000   0.88375312     0.0023323615  -0.0023804541   20.551095      19.238721      1.3123734     -1.4646089      18483.5      
    260000   0.87959271     0.0023323615  -0.00073537129  20.612892      19.306697      1.3061952     -1.1744325      18453.152    
    261000   0.98610824     0.0023323615  -0.0022694209   20.501188      19.036817      1.4643707     -1.4288143      18561.298    
    262000   1.0321709      0.0023323615   0.0016814459   21.007317      19.474544      1.5327738     -1.1824143      18447.508    
    263000   1.15919        0.0023323615   0.0032946629   20.830201      19.108804      1.7213971     -1.4604581      18310.439    
    264000   0.91757421     0.0023323615   0.00089908715  20.518763      19.156165      1.3625977     -1.3521744      18547.711    
    265000   0.94896675     0.0023323615   0.0030889938   20.387136      18.97792       1.4092156     -1.435628       18535.673    
    266000   1.0046218      0.0023323615   0.0013318537   21.006428      19.514565      1.4918634     -1.095264       18601.25     
    267000   1.0033513      0.0023323615   0.0021799698   20.574874      19.084897      1.4899767     -1.3855343      18520.193    
    268000   0.9126717      0.0023323615  -0.0012777631   20.48416       19.128843      1.3553175     -1.3214773      18451.846    
    269000   0.94405981     0.0023323615   0.0014937406   20.459443      19.057514      1.4019288     -1.5497519      18413.934    
    270000   0.9226346      0.0023323615  -0.0032614662   20.447788      19.077675      1.3701124     -1.4852943      18423.781    
    271000   0.94405931     0.0023323615   0.0018533358   20.461956      19.060028      1.4019281     -1.4773339      18223.996    
    272000   0.90227355     0.0023323615   0.0026970573   20.743921      19.404044      1.3398762     -1.2177727      18432.072    
    273000   0.85800489     0.0023323615   0.001119253    20.482921      19.208784      1.2741373     -1.1787973      18653.652    
    274000   0.94619582     0.0023323615  -0.0017676098   20.764064      19.358963      1.4051008     -1.1764815      18378.973    
    275000   0.95806775     0.0023323615  -0.00040081818  20.703876      19.281145      1.4227306     -1.4035405      18414.736    
    276000   1.1619686      0.0023323615  -0.0015583921   20.875332      19.149809      1.7255234     -1.4620094      18350.87     
    277000   0.92798275     0.0023323615   0.00033972004  20.547347      19.169292      1.3780544     -1.2715024      18368.434    
    278000   1.0997668      0.0023323615   0.00022792831  20.800098      19.166944      1.6331536     -1.3177801      18605.369    
    279000   1.0688523      0.0023323615  -0.0020554305   20.721312      19.134066      1.5872457     -1.3481275      18500.043    
    280000   0.97659826     0.0023323615   0.0016727919   20.63647       19.186221      1.4502484     -1.3715507      18372.333    
    281000   1.0400011      0.0023323615   0.00081714837  20.74072       19.196318      1.5444016     -1.3507737      18426.556    
    282000   1.0181246      0.0023323615   0.0047763722   20.796146      19.284231      1.5119151     -1.3319518      18412.131    
    283000   1.1437992      0.0023323615   0.002726401    20.663726      18.965184      1.6985418     -1.4671396      18349.082    
    284000   1.2028751      0.0023323615   0.0028512155   20.830715      19.044445      1.7862695     -1.5066932      18392.907    
    285000   1.0687814      0.0023323615  -0.0058661291   20.808244      19.221104      1.5871404     -1.2477503      18478.798    
    286000   1.0959399      0.0023323615  -0.0029789728   20.846031      19.21856       1.6274708     -1.2805462      18572.284    
    287000   0.89028647     0.0023323615  -0.0039924955   20.505672      19.183596      1.3220754     -1.4196716      18387.838    
    288000   1.0805663      0.0023323615  -0.0030369808   20.982792      19.378151      1.604641      -1.195006       18440.804    
    289000   1.1081629      0.0023323615  -0.0014741582   21.068396      19.422774      1.645622      -1.1505826      18603.76     
    290000   1.0776869      0.0023323615  -0.0028964989   20.844466      19.244101      1.6003651     -1.2569599      18661.241    
    291000   1.1355855      0.0023323615  -0.00066093477  20.911999      19.225654      1.6863444     -1.2452831      18985.603    
    292000   0.92840902     0.0023323615   0.00075650263  20.468279      19.089592      1.3786874     -1.4043906      18765.477    
    293000   0.90943313     0.0023323615   0.0022705195   20.262399      18.911891      1.3505082     -1.5357007      18506.231    
    294000   0.94116711     0.0023323615   0.00097985215  20.218006      18.820373      1.3976332     -1.5815687      18496.8      
    295000   1.0937456      0.0023323615   0.0035741351   20.790664      19.166451      1.6242123     -1.2916127      18586.948    
    296000   0.92535425     0.0023323615  -9.5777913e-05  20.377361      19.00321       1.3741511     -1.365909       18783.982    
    297000   1.0444836      0.0023323615   0.0018823261   20.865159      19.314101      1.5510581     -1.1608782      18634.429    
    298000   1.044944       0.0023323615  -0.0030797035   20.859207      19.307465      1.5517419     -1.2540907      18507.123    
    299000   0.93221453     0.0023323615  -0.0028286672   20.79696       19.412621      1.3843386     -1.374792       18460.132    
    300000   0.93325522     0.0023323615  -0.0029164515   20.706803      19.320919      1.385884      -1.2015492      18418.225    
    301000   0.84037769     0.0023323615  -0.0013464705   20.434943      19.186982      1.2479609     -1.3149525      18501.175    
    302000   1.0657501      0.0023323615  -0.0011700436   20.724167      19.141528      1.582639      -1.3547524      18571.095    
    303000   1.0073588      0.0023323615   0.0014512738   20.699773      19.203845      1.4959279     -1.299213       18448.19     
    304000   0.96522885     0.0023323615  -0.0029294381   20.304964      18.8716        1.4333648     -1.4679525      18437.564    
    305000   0.8948344      0.0023323615   0.00052604106  20.466484      19.137655      1.3288291     -1.4004432      18573.521    
    306000   1.1158585      0.0023323615  -0.0037409771   20.93945       19.2824        1.6570498     -1.2032785      18772.239    
    307000   1.1105039      0.0023323615   0.0054637201   20.788574      19.139476      1.6490983     -1.4717893      18785.605    
    308000   1.0131201      0.0023323615   0.0017216393   20.971993      19.467509      1.5044833     -1.1731471      18666.204    
    309000   1.0257171      0.0023323615   0.0064074445   20.679886      19.156696      1.5231899     -1.4421638      18679.656    
    310000   1.0826882      0.0023323615   0.0013486199   20.775578      19.167786      1.607792      -1.4063106      18516.52     
    311000   0.97271137     0.0023323615   1.1339096e-05  20.379325      18.934849      1.4444764     -1.5415112      18398.545    
    312000   0.95515594     0.0023323615  -0.0044316993   20.322795      18.904388      1.4184066     -1.6709587      18330.053    
    313000   1.1011467      0.0023323615  -0.00088275214  20.681474      19.046271      1.6352028     -1.5359157      18323.098    
    314000   0.94733362     0.0023323615  -0.0021066673   20.358464      18.951674      1.4067904     -1.5258906      18402.218    
    315000   0.97891612     0.0023323615   0.00016498179  20.701078      19.247388      1.4536904     -1.238973       18620.006    
    316000   1.0590427      0.0023323615   0.00042605412  20.858227      19.285549      1.5726784     -1.193177       18517.273    
    317000   1.0109886      0.0023323615   0.00066224345  20.671996      19.170678      1.5013181     -1.4190561      18535.474    
    318000   1.0266085      0.0023323615   0.00051576366  20.660984      19.13647       1.5245136     -1.3757469      18331.11     
    319000   1.0234571      0.0023323615   0.00091718119  20.47507       18.955236      1.5198339     -1.5282072      18297.369    
    320000   1.0334059      0.0023323615   0.0012634637   20.710379      19.175771      1.5346078     -1.3891024      18311.336    
    321000   0.92620968     0.0023323615  -0.0013915098   20.616321      19.240899      1.3754214     -1.4026114      18408.266    
    322000   1.0022905      0.0023323615   0.00081342781  20.540736      19.052334      1.4884013     -1.3527897      18756.347    
    323000   0.97711062     0.0023323615   0.0031240646   20.48585       19.03484       1.4510093     -1.3390495      18647.78     
    324000   0.99873605     0.0023323615  -0.00052379014  20.602336      19.119213      1.483123      -1.3596349      18518.187    
    325000   0.93719458     0.0023323615  -0.00047998878  20.698892      19.307158      1.391734      -1.2387855      18348.917    
    326000   1.0913785      0.0023323615  -0.00034737299  20.537292      18.916595      1.620697      -1.4533578      18405.788    
    327000   0.9960804      0.0023323615   0.0020075775   20.169871      18.690691      1.4791794     -1.7219806      18357.111    
    328000   1.0508426      0.0023323615  -0.0021120426   20.777366      19.216865      1.5605013     -1.3406021      18419.347    
    329000   1.0114499      0.0023323615  -0.000168673    20.659485      19.157482      1.5020031     -1.2935488      18534.675    
    330000   0.98058661     0.0023323615  -0.0040167879   20.854236      19.398065      1.4561711     -1.1205524      18627.435    
    331000   1.1056489      0.0023323615  -0.002609869    20.738639      19.09675       1.6418886     -1.361886       18594.001    
    332000   1.0000206      0.0023323615   0.0024572109   20.92111       19.43608       1.4850306     -1.2261407      18592.411    
    333000   0.95353476     0.0023323615   0.0015987031   20.657191      19.241192      1.4159991     -1.3747606      18472.191    
    334000   1.1193401      0.0023323615   0.0016170147   21.111143      19.448923      1.66222       -1.1778546      18507.267    
    335000   0.95767954     0.0023323615   0.00041423701  20.794346      19.372192      1.4221541     -1.1926803      18501.652    
    336000   1.0199421      0.0023323615  -0.0017731664   20.679133      19.164519      1.514614      -1.3276906      18485.287    
    337000   0.99934541     0.0023323615   0.0025405309   20.711376      19.227348      1.4840279     -1.3148766      18436.781    
    338000   0.9139084      0.0023323615  -0.0001343279   20.811556      19.454402      1.357154      -1.1647002      18707.995    
    339000   0.98128615     0.0023323615  -0.0006769124   20.882537      19.425327      1.4572099     -1.0352239      18669.957    
    340000   0.85671079     0.0023323615   0.00060960029  20.703182      19.430967      1.2722155     -1.0268793      18756.203    
    341000   1.201144       0.0023323615   0.0032428303   21.167584      19.383885      1.7836988     -1.1323225      19189.348    
    342000   1.0724181      0.0023323615  -0.00014521756  20.772567      19.180027      1.5925409     -1.3053278      18895.111    
    343000   0.96523667     0.0023323615   5.2069295e-05  20.66688       19.233503      1.4333765     -1.3046872      18546.054    
    344000   1.0884968      0.0023323615   0.0021286506   20.696811      19.080394      1.6164177     -1.3533003      18375.735    
    345000   1.0726359      0.0023323615   0.0042387156   20.670458      19.077594      1.5928644     -1.3963771      18418.317    
    346000   1.0933406      0.0023323615  -0.00093502049  20.780473      19.156862      1.6236108     -1.3236072      18389.203    
    347000   1.087144       0.0023323615  -0.0026624522   20.678011      19.063602      1.6144088     -1.4883304      18348.002    
    348000   0.94832837     0.0023323615   0.0026415851   20.724994      19.316727      1.4082676     -1.2937213      18316.646    
    349000   0.96460119     0.0023323615  -0.00078907527  20.782391      19.349958      1.4324328     -1.2062695      18483.668    
    350000   1.1792741      0.0023323615   0.0028541458   20.949857      19.198635      1.751222      -1.2732696      18401.33     
    351000   0.9831756      0.0023323615  -0.0035915584   20.359511      18.899496      1.4600158     -1.5132238      18395.859    
    352000   1.1157916      0.0023323615   0.001356959    20.682787      19.025836      1.6569505     -1.3498268      18455.237    
    353000   0.97189494     0.0023323615   0.0018977306   20.699968      19.256704      1.443264      -1.2064202      18652.819    
    354000   0.83970405     0.0023323615   0.00095908907  20.539496      19.292536      1.2469605     -1.2214304      19104.062    
    355000   1.0556953      0.0023323615  -6.330877e-05   20.905204      19.337496      1.5677075     -1.1745996      18661.695    
    356000   0.87005112     0.0023323615   0.00024774294  20.608659      19.316633      1.2920259     -1.1550299      18418.158    
    357000   1.1253034      0.0023323615   0.0016513237   21.036412      19.365336      1.6710755     -1.1372995      18550.097    
    358000   1.1043553      0.0023323615   0.00090985666  20.874522      19.234554      1.6399677     -1.2345648      18565.655    
    359000   1.0941556      0.0023323615  -0.0022643757   20.788756      19.163935      1.624821      -1.3734112      18510.923    
    360000   0.9128252      0.0023323615  -0.00049509586  20.683453      19.327907      1.3555454     -1.2147122      18475.634    
    361000   1.0177581      0.0023323615   0.00050069557  20.787505      19.276134      1.5113708     -1.2234622      18403.447    
    362000   1.0059518      0.0023323615  -0.0033885912   20.911407      19.417568      1.4938385     -1.1674009      18464.677    
    363000   1.0763715      0.0023323615  -0.00072183063  20.680272      19.08186       1.5984117     -1.4562455      18392.09     
    364000   0.88032899     0.0023323615   0.0028968333   20.170071      18.862782      1.3072885     -1.5429541      18351.194    
    365000   1.0499925      0.0023323615  -0.0028501169   20.587267      19.028029      1.5592388     -1.4379622      18430.632    
    366000   1.1541778      0.0023323615  -0.0014525717   20.941285      19.227331      1.7139541     -1.2967449      18565.935    
    367000   1.011571       0.0023323615   2.4242768e-05  20.634881      19.132698      1.502183      -1.3226122      18527.656    
    368000   1.0072216      0.0023323615   0.0045993922   20.959549      19.463825      1.4957241     -1.0580611      18547.749    
    369000   0.85211618     0.0023323615  -0.0038272495   20.795276      19.529883      1.2653925     -1.0360575      18622.195    
    370000   0.88718964     0.0023323615   0.0026438185   20.896737      19.579261      1.3174766     -0.93746593     18680.369    
    371000   1.1171953      0.0023323615   0.0025518316   21.066139      19.407104      1.6590351     -1.1810431      18911.963    
    372000   0.93999687     0.0023323615   0.0020279087   20.925182      19.529286      1.3958954     -0.94427838     18787.206    
    373000   1.0575995      0.0023323615   0.0042391277   20.967793      19.397258      1.5705353     -1.1891636      18589.814    
    374000   0.99930401     0.0023323615   0.0036816012   20.785836      19.30187       1.4839665     -1.2906917      18804.964    
    375000   1.1987696      0.0023323615   0.0050885532   20.923111      19.142939      1.7801728     -1.3674201      18509.862    
    376000   0.94024053     0.0023323615   0.0034890528   20.693054      19.296797      1.3962572     -1.1378902      18487.05     
    377000   0.94373819     0.0023323615   0.0012431221   20.829476      19.428025      1.4014512     -1.2219025      18643.632    
    378000   0.90827278     0.0023323615   0.0031570851   20.324802      18.976017      1.3487851     -1.4988226      18578.586    
    379000   0.98450108     0.0023323615  -0.00039467255  20.47655       19.014566      1.4619841     -1.3948413      18521.121    
    380000   0.97220833     0.0023323615  -0.0016829162   20.433255      18.989525      1.4437294     -1.6133905      18160.766    
    381000   1.0442204      0.0023323615   0.0025505257   20.817472      19.266805      1.5506673     -1.3721731      18223.174    
    382000   0.93113101     0.0023323615   0.0030936455   20.893733      19.511003      1.3827296     -1.0940693      18362.987    
    383000   0.91067277     0.0023323615  -0.0029649876   20.607501      19.255152      1.3523491     -1.2313242      18438.885    
    384000   0.81522524     0.0023323615  -0.00064598228  20.077234      18.866624      1.2106095     -1.5738305      18653.44     
    385000   1.0353023      0.0023323615   0.00040362438  20.610467      19.073043      1.5374238     -1.3048355      18581.917    
    386000   0.94947865     0.0023323615   0.0033608348   20.440224      19.030248      1.4099758     -1.4048279      18493.959    
    387000   0.93747752     0.0023323615  -0.0047630365   20.570226      19.178072      1.3921541     -1.2503778      18953.459    
    388000   0.85824221     0.0023323615   0.00085953595  20.808291      19.533801      1.2744897     -1.1412724      18961.791    
    389000   0.94589184     0.0023323615  -0.0033699259   20.6568        19.25215       1.4046494     -1.3554682      18537.089    
    390000   0.94090931     0.0023323615  -0.00082539093  20.598864      19.201614      1.3972503     -1.3843766      18489.899    
    391000   0.98556995     0.0023323615  -0.0010611946   20.584791      19.12122       1.4635714     -1.3894673      18500.283    
    392000   0.94948221     0.0023323615   0.00052364873  20.844765      19.434784      1.4099811     -1.2271708      18385.744    
    393000   1.0397068      0.0023323615  -0.0027064815   20.702502      19.158537      1.5439646     -1.3679011      18588.568    
    394000   0.88932299     0.0023323615  -0.00061438596  20.472831      19.152186      1.3206446     -1.3687255      18624.078    
    395000   0.98889088     0.0023323615   0.0016588005   20.650828      19.182325      1.4685029     -1.3045597      18494.795    
    396000   1.0123142      0.0023323615  -0.00044279582  20.610321      19.107034      1.5032867     -1.3963861      18300.817    
    397000   0.8859693      0.0023323615   0.00082756738  20.46833       19.152665      1.3156644     -1.3944228      18266.95     
    398000   0.9849194      0.0023323615   0.001885727    20.516622      19.054017      1.4626053     -1.3906381      18341.428    
    399000   0.82046276     0.0023323615  -0.0046881913   20.507453      19.289066      1.2183872     -1.2672582      18434.108    
    400000   0.92906063     0.0023323615  -0.0032355231   20.929848      19.550193      1.379655      -1.0543086      18476.622    
    401000   1.0280646      0.0023323615   0.00071373088  20.741437      19.214761      1.526676      -1.3239921      18382.883    
    402000   0.98036412     0.0023323615  -0.0045693263   20.830231      19.374391      1.4558407     -1.2254215      18461.917    
    403000   1.1740124      0.0023323615  -0.0039483917   20.79962       19.056211      1.7434084     -1.4669573      18297.902    
    404000   1.0023628      0.0023323615  -0.0008452145   20.449978      18.961469      1.4885087     -1.5404219      18335.845    
    405000   0.94306797     0.0023323615  -0.0013491846   20.439638      19.039182      1.4004559     -1.44552        18464.342    
    406000   0.98562311     0.0023323615  -0.00079926005  20.309442      18.845792      1.4636503     -1.5661699      18482.224    
    407000   1.0401819      0.0023323615   0.0027808368   20.622858      19.078188      1.5446701     -1.3655268      18345.517    
    408000   0.9929914      0.0023323615  -0.0022307006   20.525348      19.050756      1.4745922     -1.4011202      18458.387    
    409000   0.96787622     0.0023323615  -0.0029313169   20.629936      19.19264       1.4372962     -1.3732392      18436.29     
    410000   0.85651567     0.0023323615   0.0025097249   20.569704      19.297778      1.2719258     -1.3298044      18438.514    
[...]
    861000   1.1173913      0.0023323615  -0.0025193004   20.683422      19.024096      1.659326      -1.5209424      18302.931    
    862000   0.90754775     0.0023323615   0.0030763556   20.111012      18.763304      1.3477084     -1.6446307      18401.967    
    863000   1.0990325      0.0023323615  -0.00083703916  20.870484      19.238421      1.6320633     -1.3695724      18446.188    
    864000   0.93601235     0.0023323615  -0.00064153325  20.750083      19.360105      1.3899783     -1.2908464      18598.828    
    865000   0.99836233     0.0023323615  -0.0021743873   20.37267       18.890102      1.4825681     -1.4809084      18471.555    
    866000   1.0498019      0.0023323615  -0.0046030928   20.717997      19.159041      1.5589558     -1.3902042      18385.409    
    867000   0.89670817     0.0023323615   0.00084869424  20.343513      19.011901      1.3316116     -1.4707755      18509.849    
    868000   0.99138834     0.0023323615   0.0021388945   20.556041      19.083829      1.4722117     -1.3739834      18437.036    
    869000   1.0228636      0.0023323615   0.0035800283   20.550112      19.03116       1.5189525     -1.4297777      18547.388    
    870000   0.98503827     0.0023323615   0.00077512337  20.578199      19.115417      1.4627818     -1.4117439      18440.125    
    871000   1.0154618      0.0023323615  -0.00073190814  20.699569      19.191608      1.5079607     -1.3414646      18449.69     
    872000   0.95571653     0.0023323615  -0.0020083719   20.570062      19.150823      1.4192391     -1.4248988      18536.648    
    873000   1.1704761      0.0023323615  -0.0021638708   20.999004      19.260847      1.738157      -1.2793163      18372.748    
    874000   1.0181192      0.0023323615   0.0008756372   20.641538      19.129631      1.511907      -1.3226878      18354.089    
    875000   0.90710228     0.0023323615  -0.0040776628   20.683431      19.336385      1.3470469     -1.3092038      18367.366    
    876000   1.1045746      0.0023323615   0.0018395792   20.936017      19.295724      1.6402932     -1.2346754      18378.537    
    877000   0.98580643     0.0023323615  -0.0033570028   20.818792      19.35487       1.4639225     -1.1097559      18674.103    
    878000   0.93763092     0.0023323615  -0.0015442213   20.655868      19.263486      1.3923819     -1.2204537      18570.846    
    879000   0.94309359     0.0023323615  -0.0029010333   20.783215      19.382721      1.400494      -1.1908522      18602.419    
    880000   1.1679525      0.0023323615  -0.0057050772   21.201234      19.466825      1.7344095     -1.1728925      18508.699    
    881000   0.97034951     0.0023323615  -0.0028495574   20.607443      19.166474      1.440969      -1.3434029      18595.664    
    882000   1.1925968      0.0023323615  -0.0035927068   21.25308       19.482074      1.7710063     -1.0284148      18705.87     
    883000   0.91922292     0.0023323615  -0.00012110939  20.519457      19.15441       1.365046      -1.2984036      18784.417    
    884000   0.99334121     0.0023323615   0.0020428864   20.573773      19.098662      1.4751117     -1.3542686      18709.615    
    885000   1.176183       0.0023323615  -0.0022369092   20.810366      19.063734      1.7466318     -1.4823041      18678.912    
    886000   1.0704689      0.0023323615   0.002837467    20.426013      18.836367      1.5896463     -1.599732       18394.581    
    887000   0.87113834     0.0023323615  -0.0044223064   20.585724      19.292084      1.2936404     -1.287076       18471.6      
    888000   0.90387044     0.0023323615   0.00035735442  20.215331      18.873083      1.3422476     -1.6181642      18422.067    
    889000   1.0132575      0.0023323615   0.0036766773   20.666329      19.161642      1.5046874     -1.6020706      18483.544    
    890000   0.90691616     0.0023323615   0.0038078801   20.449365      19.102594      1.3467705     -1.4429919      18466.197    
    891000   0.98250707     0.0023323615   0.0014333563   20.494247      19.035224      1.459023      -1.5200462      18530.274    
    892000   0.88970046     0.0023323615   0.00079860258  20.266064      18.944859      1.3212052     -1.4383843      18503.36     
    893000   1.1508129      0.0023323615  -0.0019235471   21.058094      19.349137      1.7089572     -1.2508814      18476.308    
    894000   1.0149488      0.0023323615  -0.0069782826   20.646353      19.139154      1.5071989     -1.4557897      18561.805    
    895000   0.99593604     0.0023323615  -0.001625569    20.747181      19.268216      1.478965      -1.2225427      18569.789    
    896000   1.0723627      0.0023323615   0.00096481306  20.866969      19.27451       1.5924585     -1.2004355      18650.923    
    897000   0.96404304     0.0023323615  -0.0040155773   20.726723      19.295119      1.4316039     -1.1856697      18620.562    
    898000   0.88784799     0.0023323615  -0.0021269381   20.403739      19.085285      1.3184543     -1.4254944      18425.471    
    899000   0.8921435      0.0023323615   0.0038847332   20.623441      19.298608      1.3248331     -1.2270665      18517.16     
    900000   1.0045078      0.0023323615  -0.0011226403   20.618485      19.126791      1.4916941     -1.4115524      18459.441    
    901000   0.97293329     0.0023323615  -0.0033648948   20.767666      19.32286       1.4448059     -1.1657366      18685.783    
    902000   0.99438931     0.0023323615   0.003007974    20.714119      19.237451      1.4766681     -1.1907746      18683.734    
    903000   0.82538106     0.0023323615  -0.0013042775   20.241707      19.016016      1.2256909     -1.4860955      18523.331    
    904000   1.0652557      0.0023323615  -0.00068837076  20.655937      19.074032      1.5819047     -1.3752466      18379.569    
    905000   1.1100299      0.0023323615   0.0046587344   21.050681      19.402286      1.6483943     -1.1120895      18641.452    
    906000   0.90295603     0.0023323615  -0.0014160668   20.579106      19.238216      1.3408897     -1.3658086      18579.025    
    907000   0.82798824     0.0023323615   0.00092685514  20.560834      19.331272      1.2295625     -1.4234076      18531.165    
    908000   0.90940884     0.0023323615   0.00099578343  20.317561      18.967089      1.3504721     -1.4334577      18583.024    
    909000   1.0175525      0.0023323615  -0.0020964499   20.991514      19.480448      1.5110655     -1.1475683      18620.218    
    910000   1.143331       0.0023323615   0.0021136492   21.006475      19.308628      1.6978466     -1.0823887      18553.659    
    911000   0.99623137     0.0023323615  -0.0011870448   20.573013      19.09361       1.4794036     -1.428581       18449.137    
    912000   1.0678183      0.0023323615  -0.0017144147   20.553956      18.968246      1.5857101     -1.5093958      18472.413    
    913000   0.88640612     0.0023323615   0.0018819663   20.530944      19.214631      1.3163131     -1.4718127      18428.764    
    914000   1.0312833      0.0023323615   0.00062217758  20.704734      19.173279      1.5314558     -1.365262       18399.247    
    915000   0.96999363     0.0023323615  -0.00022694135  20.718632      19.278191      1.4404405     -1.3187237      18376.019    
    916000   0.97011112     0.0023323615   0.0035527391   20.512328      19.071713      1.440615      -1.5589423      18450.348    
    917000   0.87158207     0.0023323615  -0.0029496756   20.518785      19.224486      1.2942994     -1.4128967      18763.833    
    918000   0.97711668     0.0023323615   0.002108983    20.509155      19.058136      1.4510183     -1.4117844      18784.657    
    919000   0.99887816     0.0023323615   0.0039164064   20.605538      19.122204      1.4833341     -1.3506336      18538.978    
    920000   0.92794565     0.0023323615   0.00069887157  20.528323      19.150324      1.3779993     -1.3916406      18355.706    
    921000   0.87059406     0.0023323615  -0.0019082118   20.505655      19.212823      1.2928322     -1.3344736      18503.957    
    922000   1.049857       0.0023323615   0.00096028487  20.701826      19.142788      1.5590376     -1.5060677      18421.129    
    923000   1.0421495      0.0023323615   0.00049514489  20.680832      19.13324       1.5475919     -1.4053094      18374.128    
    924000   1.0459891      0.0023323615   0.0038502914   20.35192       18.798626      1.5532939     -1.642004       18351.218    
    925000   0.90098622     0.0023323615   0.0034250163   20.429129      19.091165      1.3379645     -1.4790973      18337.89     
    926000   0.98651725     0.0023323615   0.00066793971  20.500893      19.035915      1.4649781     -1.4900727      18404.801    
    927000   1.1460637      0.0023323615   0.0020028091   20.817106      19.115201      1.7019046     -1.4746175      18489.684    
    928000   1.0999518      0.0023323615   0.00043269453  20.67003       19.036602      1.6334284     -1.4290563      18548.322    
    929000   1.1855862      0.0023323615  -0.002567124    20.927924      19.167328      1.7605955     -1.3041562      18353.418    
    930000   1.0145184      0.0023323615  -0.0033354592   20.878162      19.371602      1.5065598     -1.1186296      18571.946    
    931000   0.86699715     0.0023323615  -0.0019930458   20.676279      19.388788      1.2874908     -1.1768048      18429.887    
    932000   1.0205757      0.0023323615  -0.0013941545   20.705729      19.190174      1.515555      -1.3724219      18518.039    
    933000   1.0770824      0.0023323615   0.00010785759  21.097103      19.497635      1.5994673     -1.0080303      18548.39     
    934000   0.96599918     0.0023323615  -0.00023876053  20.610935      19.176426      1.4345088     -1.2689963      18732.973    
    935000   0.90931104     0.0023323615  -0.0015082302   20.61455       19.264223      1.3503269     -1.2383548      18750.759    
    936000   0.91018958     0.0023323615   0.001584318    20.691         19.339369      1.3516315     -1.2267181      18651.209    
    937000   0.92050897     0.0023323615   0.00029028845  20.586665      19.219709      1.3669558     -1.2929438      18734.281    
    938000   0.92654702     0.0023323615   0.0010848164   20.674549      19.298627      1.3759223     -1.2091877      18672.713    
    939000   0.98873921     0.0023323615  -0.00095803975  20.339137      18.87086       1.4682777     -1.6840395      18524.507    
    940000   1.0078442      0.0023323615  -0.0007031365   20.538183      19.041534      1.4966486     -1.4087311      18296.856    
    941000   1.1452735      0.0023323615   0.0033982546   20.800812      19.100081      1.7007312     -1.375729       18346.121    
    942000   1.1045173      0.0023323615  -0.0024560873   20.839656      19.199447      1.6402082     -1.3598886      18555.294    
    943000   0.90545523     0.0023323615   0.0028372831   20.330765      18.986164      1.344601      -1.4861757      18507.148    
    944000   0.93125481     0.0023323615   0.0023501814   20.575479      19.192565      1.3829134     -1.4010568      18391.192    
    945000   0.86207698     0.0023323615  -0.00011473153  20.205477      18.925292      1.2801843     -1.5237667      18417.09     
    946000   1.0502496      0.0023323615   0.0028340011   20.308081      18.748461      1.5596206     -1.7158122      18406.423    
    947000   0.91701962     0.0023323615  -0.0010543469   20.787247      19.425473      1.3617741     -1.1377325      18000.688    
    948000   1.0767203      0.0023323615   0.00045784482  20.575508      18.976578      1.5989297     -1.4470392      18298.211    
    949000   1.1400489      0.0023323615   0.0016120818   20.98305       19.290077      1.6929726     -1.2638084      18357.195    
    950000   1.1018358      0.0023323615   0.00098428798  20.875945      19.239718      1.6362261     -1.2340373      18531.946    
    951000   0.9376696      0.0023323615   4.6917451e-05  20.536459      19.144019      1.3924394     -1.3780403      18344.502    
    952000   1.1247893      0.0023323615   0.0030211954   20.81453       19.144218      1.6703121     -1.3216364      18262.291    
    953000   1.0306713      0.0023323615   0.0013472248   20.887757      19.35721       1.5305469     -1.1591909      18415.307    
    954000   0.85813837     0.0023323615   0.00083740544  20.348384      19.074049      1.2743355     -1.4642961      18486.981    
    955000   1.1217948      0.0023323615   0.0013078521   20.653361      18.987496      1.6658652     -1.5506423      18520.066    
    956000   1.0334582      0.0023323615   0.00071061434  20.715653      19.180967      1.5346854     -1.3215175      18549.918    
    957000   0.89712273     0.0023323615  -0.002721571    20.552616      19.220389      1.3322273     -1.3253084      18477.355    
    958000   0.97889818     0.0023323615   0.00027407264  20.75618       19.302516      1.4536638     -1.3935047      18362.841    
    959000   0.96872815     0.0023323615   0.0033507351   20.382175      18.943614      1.4385613     -1.5746553      18377.549    
    960000   1.1319673      0.0023323615   0.00099079471  20.685788      19.004816      1.6809715     -1.4186923      18403.528    
    961000   1.1063638      0.0023323615   0.0024350085   21.206694      19.563744      1.6429502     -0.99387137     18581.955    
    962000   0.9395058      0.0023323615  -0.0016788647   20.875046      19.47988       1.3951661     -1.0851756      18728.607    
    963000   1.1505412      0.0023323615   0.0027154402   20.893012      19.184459      1.7085536     -1.2649184      18504.793    
    964000   0.82843993     0.0023323615   0.00016235743  20.290065      19.059831      1.2302333     -1.3108458      18419.973    
    965000   0.94934642     0.0023323615   0.0028516121   20.536237      19.126458      1.4097794     -1.3916158      18618.905    
    966000   1.0298541      0.0023323615  -0.0048184834   20.631681      19.102347      1.5293333     -1.4967004      18761.943    
    967000   0.99936735     0.0023323615   0.0016686413   20.780781      19.296721      1.4840605     -1.3079114      18564.225    
    968000   0.85683522     0.0023323615   0.00092798197  20.3403        19.0679        1.2724003     -1.4469064      18206.448    
    969000   0.93878822     0.0023323615   0.00072754337  20.421865      19.027764      1.3941005     -1.5191832      17931.738    
    970000   0.83622853     0.0023323615   0.0030026999   20.399996      19.158196      1.2417994     -1.3747565      18067.772    
    971000   0.9112738      0.0023323615  -0.00048998032  20.484309      19.131067      1.3532416     -1.3889053      18351.211    
    972000   1.0629171      0.0023323615  -0.002102531    20.767623      19.189191      1.5784318     -1.3168809      18338.843    
    973000   0.95683682     0.0023323615   0.00014204236  20.5113        19.090397      1.4209027     -1.3933529      18286.819    
    974000   0.99824831     0.0023323615  -0.00082522393  20.66983       19.187431      1.4823987     -1.3621932      18355.217    
    975000   0.93795767     0.0023323615  -0.0011988279   20.572826      19.179959      1.3928671     -1.3683519      18500.877    
    976000   1.008035       0.0023323615   0.0075155901   20.44305       18.946119      1.4969319     -1.4700717      18383.648    
    977000   1.093206       0.0023323615   0.00018078055  20.614712      18.991301      1.6234109     -1.4840837      18383.601    
    978000   0.90946709     0.0023323615  -0.00013248134  20.542961      19.192402      1.3505586     -1.2049328      18461.412    
    979000   1.0462267      0.0023323615  -0.0020422761   20.754443      19.200796      1.5536466     -1.355059       18470.27     
    980000   0.92352828     0.0023323615  -0.0040933177   20.770035      19.398595      1.3714395     -1.2479187      18389.599    
    981000   0.99522937     0.0023323615   8.1001186e-05  20.431364      18.953448      1.4779156     -1.583865       18337.317    
    982000   1.0551213      0.0023323615  -0.0028508622   20.762042      19.195186      1.5668552     -1.3772751      18271.688    
    983000   1.0417578      0.0023323615   0.0017008594   20.853894      19.306883      1.5470103     -1.1548278      18609.161    
    984000   0.96926643     0.0023323615  -0.0030320173   20.693239      19.253878      1.4393607     -1.3190173      18539.632    
    985000   0.90117945     0.0023323615  -0.00053734701  20.621214      19.282963      1.3382515     -1.2668302      18651.084    
    986000   0.90994777     0.0023323615   0.004679699    20.398144      19.046872      1.3512724     -1.3538738      18642.928    
    987000   0.96208743     0.0023323615   0.00062534455  20.77774       19.34904       1.4286998     -1.2413625      18668.442    
    988000   1.0855656      0.0023323615   0.0013763025   20.912089      19.300024      1.6120649     -1.1735866      18665.917    
    989000   0.90387487     0.0023323615   0.00016084658  20.607238      19.264984      1.3422542     -1.1605539      18505.044    
    990000   0.88161471     0.0023323615  -0.0029071698   20.518315      19.209117      1.3091978     -1.3078947      18625.878    
    991000   1.0661059      0.0023323615  -0.0021069333   21.012586      19.429419      1.5831672     -1.2417073      18624.658    
    992000   1.0622242      0.0023323615   0.0030101398   21.043292      19.465889      1.5774029     -1.0241027      18617.596    
    993000   1.0652956      0.0023323615  -0.00080498751  21.01649       19.434526      1.5819639     -1.2660125      18878.429    
    994000   1.2744571      0.0023323615   0.00098185076  21.259135      19.366566      1.8925689     -1.1843633      19073.826    
    995000   0.9807903      0.0023323615  -0.0040607628   20.54134       19.084866      1.4564736     -1.3515977      18828.732    
    996000   1.0085827      0.0023323615   0.001984827    20.535229      19.037484      1.4977453     -1.4211923      18467.013    
    997000   1.012108       0.0023323615  -0.0043193289   20.669146      19.166165      1.5029804     -1.3879119      18429.22     
    998000   1.0465563      0.0023323615  -0.00042299586  20.591325      19.037189      1.5541361     -1.4213393      18451.167    
    999000   0.9788111      0.0023323615  -0.0030347858   20.703963      19.250429      1.4535345     -1.4352639      18346.175    
   1000000   0.84051707     0.0023323615   0.005273137    20.20313       18.954962      1.2481678     -1.5918794      18339.349    
Loop time of 53.9892 on 1 procs for 1000000 steps with 100 atoms

Performance: 8001593.272 tau/day, 18522.207 timesteps/s
99.4% CPU use with 1 MPI tasks x 1 OpenMP threads

MPI task timing breakdown:
Section |  min time  |  avg time  |  max time  |%varavg| %total
---------------------------------------------------------------
Pair    | 44.941     | 44.941     | 44.941     |   0.0 | 83.24
Bond    | 1.2552     | 1.2552     | 1.2552     |   0.0 |  2.32
Neigh   | 3.8015     | 3.8015     | 3.8015     |   0.0 |  7.04
Comm    | 1.4265     | 1.4265     | 1.4265     |   0.0 |  2.64
Output  | 0.2138     | 0.2138     | 0.2138     |   0.0 |  0.40
Modify  | 1.9953     | 1.9953     | 1.9953     |   0.0 |  3.70
Other   |            | 0.3556     |            |       |  0.66

Nlocal:            100 ave         100 max         100 min
Histogram: 1 0 0 0 0 0 0 0 0 0
Nghost:            296 ave         296 max         296 min
Histogram: 1 0 0 0 0 0 0 0 0 0
Neighs:           4851 ave        4851 max        4851 min
Histogram: 1 0 0 0 0 0 0 0 0 0

Total # of neighbors = 4851
Ave neighs/atom = 48.51
Ave special neighs/atom = 1.98
Neighbor list builds = 97910
Dangerous builds = 80163

write_data      ${outputfile_assembled} nofix nocoeff
write_data      7_assembled.data nofix nocoeff
System init for write_data ...
Generated 0 of 6 mixed pair_coeff terms from geometric mixing rule

Total wall time: 0:00:55
