LAMMPS (23 Jun 2022 - Update 1)
OMP_NUM_THREADS environment is not set. Defaulting to 1 thread. (src/comm.cpp:98)
  using 1 OpenMP thread(s) per MPI task


variable        runtime equal 1000000
variable		subsample_rate equal 1000

variable		outputfile_created string '3_created.data'
variable		outputfile_relaxed string '5_relaxed.data'
variable		outputfile_selfasb string '6_a_self_assemble.lammpstrj'
variable		outputfile_trajlin string '6_b_trajlin.data'
variable		outputfile_assembled string '7_assembled.data'

units           lj
atom_style      full
dimension       3
boundary        p p p
timestep        0.005

read_data       ${outputfile_created}
read_data       3_created.data
Reading data file ...
  orthogonal box = (0 0 0) to (35 35 35)
  1 by 1 by 1 MPI processor grid
  reading atoms ...
  100 atoms
  reading velocities ...
  100 velocities
  scanning bonds ...
  1 = max bonds/atom
  reading bonds ...
  99 bonds
Finding 1-2 1-3 1-4 neighbors ...
  special bond factors lj:    0        0        0       
  special bond factors coul:  0        0        0       
     2 = max # of 1-2 neighbors
     2 = max # of 1-3 neighbors
     4 = max # of 1-4 neighbors
     6 = max # of special neighbors
  special bonds CPU = 0.000 seconds
  read_data CPU = 0.006 seconds

bond_style      fene
bond_coeff      * 30.0 1.5 1.0 1.0
special_bonds   fene
Finding 1-2 1-3 1-4 neighbors ...
  special bond factors lj:    0        1        1       
  special bond factors coul:  0        1        1       
     2 = max # of 1-2 neighbors
     6 = max # of special neighbors
  special bonds CPU = 0.000 seconds

variable        Temp equal 1.0
variable        velSeed equal 926458

velocity        all create ${Temp} ${velSeed}
velocity        all create 1 ${velSeed}
velocity        all create 1 926458

### Output
thermo_style    custom step temp density press etotal pe ke epair spcpu
thermo          1000

###########################################################################
# Soft relaxation (to remove overlaps of particles)
######################################################################

pair_style      soft 1.0
pair_coeff      * * 0.0
variable        prefactor equal ramp(0,300)
fix             rampSoft all adapt 1 pair soft a * * v_prefactor

minimize        0.0 1.0e-8 1000 100000
WARNING: Using 'neigh_modify every 1 delay 0 check yes' setting during minimization (src/min.cpp:187)
Generated 0 of 6 mixed pair_coeff terms from geometric mixing rule
Neighbor list info ...
  update every 1 steps, delay 0 steps, check yes
  max neighbors/atom: 2000, page size: 100000
  master list distance cutoff = 1.3
  ghost atom cutoff = 1.3
  binsize = 0.65, bins = 54 54 54
  1 neighbor lists, perpetual/occasional/extra = 1 0 0
  (1) pair soft, perpetual
      attributes: half, newton on
      pair build: half/bin/newton
      stencil: half/bin/3d
      bin: standard
WARNING: Communication cutoff 1.3 is shorter than a bond length based estimate of 1.7550000000000001. This may lead to errors. (src/comm.cpp:727)
Per MPI rank memory allocation (min/avg/max) = 8.346 | 8.346 | 8.346 Mbytes
   Step          Temp         Density         Press          TotEng         PotEng         KinEng         E_pair         S/CPU     
         0   1              0.0023323615  -0.0039617958   21.524174      20.039174      1.485          0              0            
       362   1              0.0023323615   0.0023090379   21.485548      20.000548      1.485          0              66821.797    
Loop time of 0.00541956 on 1 procs for 362 steps with 100 atoms

99.2% CPU use with 1 MPI tasks x 1 OpenMP threads

Minimization stats:
  Stopping criterion = force tolerance
  Energy initial, next-to-last, final = 
      20.0391741078675   20.0005480767337   20.0005480767337
  Force two-norm initial, final = 11.878422 7.9509778e-09
  Force max component initial, final = 6.6117807 1.3572772e-09
  Final line search alpha, max atom move = 1 1.3572772e-09
  Iterations, force evaluations = 362 738

MPI task timing breakdown:
Section |  min time  |  avg time  |  max time  |%varavg| %total
---------------------------------------------------------------
Pair    | 0.00021473 | 0.00021473 | 0.00021473 |   0.0 |  3.96
Bond    | 0.002363   | 0.002363   | 0.002363   |   0.0 | 43.60
Neigh   | 0.0016608  | 0.0016608  | 0.0016608  |   0.0 | 30.65
Comm    | 0.00018674 | 0.00018674 | 0.00018674 |   0.0 |  3.45
Output  | 0          | 0          | 0          |   0.0 |  0.00
Modify  | 0          | 0          | 0          |   0.0 |  0.00
Other   |            | 0.0009943  |            |       | 18.35

Nlocal:            100 ave         100 max         100 min
Histogram: 1 0 0 0 0 0 0 0 0 0
Nghost:             20 ave          20 max          20 min
Histogram: 1 0 0 0 0 0 0 0 0 0
Neighs:              0 ave           0 max           0 min
Histogram: 1 0 0 0 0 0 0 0 0 0

Total # of neighbors = 0
Ave neighs/atom = 0
Ave special neighs/atom = 1.98
Neighbor list builds = 17
Dangerous builds = 0

fix             nvtSoft all nvt temp ${Temp} ${Temp} 0.5
fix             nvtSoft all nvt temp 1 ${Temp} 0.5
fix             nvtSoft all nvt temp 1 1 0.5
run             100000
Generated 0 of 6 mixed pair_coeff terms from geometric mixing rule
WARNING: Communication cutoff 1.3 is shorter than a bond length based estimate of 1.7550000000000001. This may lead to errors. (src/comm.cpp:727)
Per MPI rank memory allocation (min/avg/max) = 7.221 | 7.221 | 7.221 Mbytes
   Step          Temp         Density         Press          TotEng         PotEng         KinEng         E_pair         S/CPU     
       362   1              0.0023323615   0.0023090379   21.485548      20.000548      1.485          0              0            
      1000   0.90989032     0.0023323615  -0.0021940042   21.776974      20.425787      1.3511871      0.00036425437  77135.744    
      2000   0.86546688     0.0023323615   0.0034714157   21.677128      20.39191       1.2852183      0.0025814786   77245.744    
      3000   0.98199538     0.0023323615   0.0028144228   21.866132      20.407869      1.4582631      0.0011756043   74006.662    
      4000   1.004495       0.0023323615  -0.0014058211   21.945624      20.453949      1.4916751      0.011986179    74172.146    
      5000   1.1222705      0.0023323615   0.0044495116   21.986385      20.319813      1.6665718      0.0050317639   74627.941    
      6000   1.0538243      0.0023323615   0.0023957538   21.985713      20.420784      1.564929       0.012100514    75282.792    
      7000   1.0210598      0.0023323615  -0.00038820026  21.904665      20.388391      1.5162738      0              77029.995    
      8000   0.94819751     0.0023323615   0.0024943091   21.747889      20.339816      1.4080733      0              76915.143    
      9000   0.92364502     0.0023323615   0.0020053029   21.724166      20.352554      1.3716129      1.7780894e-05  75968.307    
     10000   0.86685188     0.0023323615   0.00078277366  21.644879      20.357604      1.287275       0.0098636418   76200.584    
     11000   1.0057103      0.0023323615   0.00010113276  21.8558        20.362321      1.4934798      0.020705341    76051.017    
     12000   0.97901664     0.0023323615  -0.0026996968   21.871206      20.417366      1.4538397      0.0052928539   75809.459    
     13000   0.97718436     0.0023323615  -6.1641422e-06  21.963706      20.512587      1.4511188      0.025022446    75475.201    
     14000   1.0530014      0.0023323615  -0.0009993112   21.947994      20.384287      1.5637071      0.0020860456   74916.126    
     15000   0.99094527     0.0023323615   0.0011068478   21.895146      20.423592      1.4715537      0.0015091113   75824.031    
     16000   0.91285091     0.0023323615  -0.00025424173  21.87524       20.519657      1.3555836      0.0047853639   75003.895    
     17000   0.82806978     0.0023323615  -0.00054698156  21.701984      20.472301      1.2296836      0              75370.167    
     18000   1.043278       0.0023323615  -6.6143919e-05  22.003299      20.454031      1.5492679      0.0034319132   76269.634    
     19000   1.0879249      0.0023323615  -0.0017804642   21.998985      20.383416      1.6155685      0.015376175    74883.027    
     20000   1.1144506      0.0023323615   0.0025198298   22.190904      20.535944      1.6549592      0              75514.659    
     21000   1.0427751      0.0023323615   0.0011345349   22.099492      20.550971      1.548521       0.00040047813  76099.841    
     22000   1.0586695      0.0023323615   0.0017882747   22.05673       20.484606      1.5721242      0              76188.369    
     23000   1.0058426      0.0023323615  -0.0055245362   21.954628      20.460951      1.4936763      0.0027619031   75187.292    
     24000   0.98273442     0.0023323615   0.0015147357   21.862067      20.402707      1.4593606      0              75633.445    
     25000   0.95835343     0.0023323615   0.0017808774   21.937761      20.514606      1.4231548      0.00020839942  74932.158    
     26000   0.93993778     0.0023323615  -0.0021777292   21.884849      20.489042      1.3958076      0.0088889834   75770.503    
     27000   0.9308188      0.0023323615  -0.00011239942  21.842252      20.459986      1.3822659      0.021612409    75130.695    
     28000   1.0149581      0.0023323615   0.0041996387   21.906846      20.399633      1.5072129      0.0064059022   75638.205    
     29000   0.92841138     0.0023323615  -2.5398808e-05  21.987185      20.608494      1.3786909      0.0046112484   75533.117    
     30000   1.021043       0.0023323615   0.001589158    22.097958      20.581709      1.5162489      0.016799508    72489.686    
     31000   1.0465985      0.0023323615  -0.0021744286   22.037917      20.483718      1.5541987      0.0057879149   75953.565    
     32000   0.98907108     0.0023323615  -0.0015558606   22.044089      20.575318      1.4687705      0.009448173    75512.087    
     33000   1.0918536      0.0023323615  -0.0025643847   22.039275      20.417873      1.6214025      0              74570.454    
     34000   0.99801543     0.0023323615   0.0016279766   21.932339      20.450286      1.4820529      0.017384617    76950.365    
     35000   1.0352271      0.0023323615  -0.0052971711   22.076004      20.538692      1.5373122      0.00010473809  75474.062    
     36000   1.1141579      0.0023323615  -0.00093279925  22.222491      20.567966      1.6545245      0.00033678641  76032.248    
     37000   1.0369415      0.0023323615   0.00013065175  22.217841      20.677983      1.5398581      0.013788831    75385.076    
     38000   1.0515596      0.0023323615   0.0021717558   22.070766      20.5092        1.561566       0.0067894678   76011.523    
     39000   1.0238495      0.0023323615   0.00026414509  22.040141      20.519725      1.5204165      0.00044464649  75217.944    
     40000   1.0749111      0.0023323615  -0.0026849368   22.039327      20.443084      1.596243       0.012651334    73961.423    
     41000   0.99070886     0.0023323615  -0.0030385564   22.03241       20.561207      1.4712027      0.00092855646  77215.385    
     42000   0.95315224     0.0023323615   0.0019788197   21.965263      20.549832      1.4154311      0.020233689    75376.422    
     43000   1.0644183      0.0023323615  -0.0011168725   22.287172      20.706511      1.5806611      0.039694129    75507.97     
     44000   1.0253747      0.0023323615  -0.006676522    22.066233      20.543552      1.5226814      0              74790.557    
     45000   0.94179556     0.0023323615  -0.0047206018   21.970644      20.572077      1.3985664      0.019869988    75228.265    
     46000   1.0083495      0.0023323615  -0.0017646918   21.972114      20.474715      1.497399       0.00026040605  75367.032    
     47000   0.98767959     0.0023323615  -0.00080218158  22.091674      20.62497       1.4667042      0.024266258    75106.048    
     48000   1.1473449      0.0023323615  -0.0025885687   22.080512      20.376705      1.7038072      0.00065962995  75274.388    
     49000   1.0679312      0.0023323615   0.0017688272   21.970482      20.384604      1.5858779      0.014142422    76313.724    
     50000   0.9581935      0.0023323615   0.0014398836   21.955202      20.532284      1.4229173      0.0055011948   75840.506    
     51000   1.0215759      0.0023323615  -0.00093292688  21.934681      20.41764       1.5170402      0              75672.61     
     52000   0.98079591     0.0023323615   0.0040701936   21.977374      20.520892      1.4564819      0.0020862422   76459.462    
     53000   1.0090927      0.0023323615   0.0013324753   22.095438      20.596935      1.4985027      0              75771.995    
     54000   0.97519627     0.0023323615   0.0013260734   22.070151      20.621984      1.4481665      0.026885444    76387.897    
     55000   1.1805087      0.0023323615  -0.001586238    22.424088      20.671033      1.7530554      0.024690954    76088.995    
     56000   0.98387121     0.0023323615   0.0037155145   22.104425      20.643376      1.4610487      0.01435493     75814.868    
     57000   1.0723812      0.0023323615  -0.0037916262   22.122726      20.53024       1.592486       0.013635549    76232.708    
     58000   1.0152349      0.0023323615   0.00021908047  22.082827      20.575203      1.5076238      0.00077375639  75922.425    
     59000   1.1424502      0.0023323615  -0.0052108657   22.30072       20.604182      1.6965385      0.013308184    76984.848    
     60000   1.0359703      0.0023323615  -0.00097887545  22.188218      20.649802      1.538416       0.00011346294  75215.223    
     61000   1.1646839      0.0023323615  -0.002085017    22.239945      20.51039       1.7295556      0.012918477    77580.344    
     62000   1.101836       0.0023323615   0.0010338878   22.171386      20.53516       1.6362265      0.001396566    76145.531    
     63000   0.96616435     0.0023323615   0.00097550571  21.903821      20.469067      1.4347541      0.013027663    77490.786    
     64000   1.0068907      0.0023323615  -0.0020278726   22.061652      20.566419      1.4952327      0.013750276    76091.543    
     65000   0.98723233     0.0023323615   0.0022441476   22.031073      20.565033      1.46604        0.0066686189   76731.131    
     66000   1.0273881      0.0023323615  -0.0003515278   22.183579      20.657908      1.5256713      0              74816.458    
     67000   0.96528212     0.0023323615  -0.00014822656  21.9396        20.506156      1.4334439      0.010365557    76712.913    
     68000   1.069702       0.0023323615   9.4754668e-05  22.081119      20.492611      1.5885075      0.00049153926  74032.901    
     69000   1.1229502      0.0023323615   0.0011504079   22.200329      20.532748      1.6675811      0.0068454249   76786.385    
     70000   1.0062775      0.0023323615  -0.00085311964  22.094021      20.599699      1.4943221      0.013222355    75319.825    
     71000   1.0906935      0.0023323615   0.00015260357  22.145362      20.525682      1.6196798      0.018338513    75996.418    
     72000   1.010401       0.0023323615  -6.0487182e-06  22.154105      20.653659      1.5004455      0.0013793953   74690.263    
     73000   1.1177599      0.0023323615  -0.0034084797   22.254435      20.594562      1.6598735      0.00011231735  77445.386    
     74000   0.9768019      0.0023323615   0.00016143893  22.07312       20.622569      1.4505508      0.0084515956   75306.649    
     75000   1.1360996      0.0023323615   0.002159116    22.161595      20.474487      1.6871079      0.0089909162   76153.957    
     76000   0.97379329     0.0023323615  -0.00068458621  21.988928      20.542845      1.446083       0              74326.956    
     77000   0.94876793     0.0023323615  -0.0016073976   21.923496      20.514575      1.4089204      0.017745108    75520.487    
     78000   0.83947996     0.0023323615  -0.00062768559  21.726727      20.480099      1.2466277      0.0054510099   75987.218    
     79000   1.0090614      0.0023323615  -0.00080262643  22.068192      20.569736      1.4984562      0.00023011166  77038.142    
     80000   1.1217643      0.0023323615  -0.0038177864   22.367902      20.702082      1.66582        0.032902439    76170.692    
     81000   1.0240158      0.0023323615   0.00023547123  22.031597      20.510933      1.5206635      0.0068767308   75748.652    
     82000   1.003236       0.0023323615  -0.0022802982   21.894199      20.404393      1.4898055      0.019136282    74809.166    
     83000   1.0554159      0.0023323615   0.004011718    22.104562      20.537269      1.5672927      0.0080869707   74627.773    
     84000   0.83527346     0.0023323615  -0.0034122221   21.874648      20.634267      1.2403811      0.0030083664   75618.381    
     85000   1.036002       0.0023323615   0.0013573923   21.962923      20.42446       1.5384629      0.015709144    76455.651    
     86000   0.9432002      0.0023323615  -0.0032183248   21.913588      20.512936      1.4006523      0.013730309    76334.037    
     87000   0.95566008     0.0023323615  -0.00049614223  21.91653       20.497375      1.4191552      0.0035862035   75548.096    
     88000   0.93373351     0.0023323615  -0.00097093893  21.870485      20.483891      1.3865943      0.0018212145   75213.972    
     89000   0.9684944      0.0023323615  -0.00047342045  21.973429      20.535215      1.4382142      0.00087524744  75520.487    
     90000   0.98293324     0.0023323615  -0.0032204602   22.050919      20.591263      1.4596559      0.015353933    76688.216    
     91000   1.0832827      0.0023323615   0.0048517083   22.11977       20.511095      1.6086749      0.0052867789   77777.36     
     92000   0.85899662     0.0023323615  -0.0013049519   21.765697      20.490087      1.27561        0.0024124001   76553.465    
     93000   0.96176266     0.0023323615  -4.4223672e-05  21.874222      20.446004      1.4282176      0.0045653365   77368.128    
     94000   0.96019503     0.0023323615   0.00024459347  21.944954      20.519064      1.4258896      3.8053462e-05  76694.815    
     95000   0.94702149     0.0023323615  -0.0033658915   21.86315       20.456823      1.4063269      0              77376.527    
     96000   0.91119348     0.0023323615  -0.0013197298   21.825018      20.471896      1.3531223      0.00043282989  76026.283    
     97000   1.0016687      0.0023323615  -0.0019514304   22.013024      20.525546      1.487478       0.0048369955   75496.096    
     98000   1.02143        0.0023323615  -0.0057874974   22.177965      20.661142      1.5168235      0              74557.144    
     99000   1.032786       0.0023323615   0.0018228259   21.975336      20.441649      1.5336871      7.1595851e-05  77664.498    
    100000   1.0594928      0.0023323615   0.0036169719   22.011024      20.437677      1.5733468      0.00032948157  75871.866    
    100362   1.1904942      0.0023323615  -0.00089755607  22.316856      20.548972      1.7678839      0.00063845255  75476.387    
Loop time of 1.31952 on 1 procs for 100000 steps with 100 atoms

Performance: 32739087.694 tau/day, 75784.925 timesteps/s
99.1% CPU use with 1 MPI tasks x 1 OpenMP threads

MPI task timing breakdown:
Section |  min time  |  avg time  |  max time  |%varavg| %total
---------------------------------------------------------------
Pair    | 0.04983    | 0.04983    | 0.04983    |   0.0 |  3.78
Bond    | 0.12571    | 0.12571    | 0.12571    |   0.0 |  9.53
Neigh   | 0.80475    | 0.80475    | 0.80475    |   0.0 | 60.99
Comm    | 0.055437   | 0.055437   | 0.055437   |   0.0 |  4.20
Output  | 0.0011876  | 0.0011876  | 0.0011876  |   0.0 |  0.09
Modify  | 0.24881    | 0.24881    | 0.24881    |   0.0 | 18.86
Other   |            | 0.0338     |            |       |  2.56

Nlocal:            100 ave         100 max         100 min
Histogram: 1 0 0 0 0 0 0 0 0 0
Nghost:             60 ave          60 max          60 min
Histogram: 1 0 0 0 0 0 0 0 0 0
Neighs:             36 ave          36 max          36 min
Histogram: 1 0 0 0 0 0 0 0 0 0

Total # of neighbors = 36
Ave neighs/atom = 0.36
Ave special neighs/atom = 1.98
Neighbor list builds = 9821
Dangerous builds = 8265
unfix           nvtSoft
unfix           rampSoft
reset_timestep  0

write_data      ${outputfile_relaxed}
write_data      5_relaxed.data
System init for write_data ...
Generated 0 of 6 mixed pair_coeff terms from geometric mixing rule
WARNING: Communication cutoff 1.3 is shorter than a bond length based estimate of 1.7550000000000001. This may lead to errors. (src/comm.cpp:727)
WARNING: Not all mixed pair coeffs generated from mixing. Use write_data with 'pair ij' option to store all pair coeffs. (src/write_data.cpp:309)

###########################################################################
# Full LJ with Coulomb
######################################################################

# Cutoffs and parameters:
# - Values: Marcel Verkade's Bachelor Thesis
# - Mapping to atom groups: Patrick Onck's paper
# - 1: aliphatic, 2: aromatic, 3: anion, 4: cation
# pair_style	lj/cut/coul/cut <lj_cut_global> <coul_cut_global>
# pair_coeff	<type_1>  <type_2>  <eps>  <sigma>  <r_cut_lj>  <r_cut_coul>

# Problem: Onck's model is much more complex, and Marcel has no sigma reported
# Using sigma=1 randomly

variable		glob_ljeps equal 1.0
variable		glob_ljsig 	equal 1.0
variable		glob_coulcut equal 10.0
variable		att_ljcut equal 2.50
variable		rep_ljcut equal 1.12

pair_style		lj/cut/coul/cut 						${att_ljcut} 	${glob_coulcut}
pair_style		lj/cut/coul/cut 						2.5 	${glob_coulcut}
pair_style		lj/cut/coul/cut 						2.5 	10
pair_coeff		1 1 	${glob_ljeps} 	${glob_ljsig}	${att_ljcut} 	${glob_coulcut}
pair_coeff		1 1 	1 	${glob_ljsig}	${att_ljcut} 	${glob_coulcut}
pair_coeff		1 1 	1 	1	${att_ljcut} 	${glob_coulcut}
pair_coeff		1 1 	1 	1	2.5 	${glob_coulcut}
pair_coeff		1 1 	1 	1	2.5 	10
pair_coeff		1 2 	${glob_ljeps} 	${glob_ljsig}	${att_ljcut} 	${glob_coulcut}
pair_coeff		1 2 	1 	${glob_ljsig}	${att_ljcut} 	${glob_coulcut}
pair_coeff		1 2 	1 	1	${att_ljcut} 	${glob_coulcut}
pair_coeff		1 2 	1 	1	2.5 	${glob_coulcut}
pair_coeff		1 2 	1 	1	2.5 	10
pair_coeff		1 3 	${glob_ljeps} 	${glob_ljsig}	${rep_ljcut} 	${glob_coulcut}
pair_coeff		1 3 	1 	${glob_ljsig}	${rep_ljcut} 	${glob_coulcut}
pair_coeff		1 3 	1 	1	${rep_ljcut} 	${glob_coulcut}
pair_coeff		1 3 	1 	1	1.12 	${glob_coulcut}
pair_coeff		1 3 	1 	1	1.12 	10
pair_coeff		1 4 	${glob_ljeps} 	${glob_ljsig}	${rep_ljcut} 	${glob_coulcut}
pair_coeff		1 4 	1 	${glob_ljsig}	${rep_ljcut} 	${glob_coulcut}
pair_coeff		1 4 	1 	1	${rep_ljcut} 	${glob_coulcut}
pair_coeff		1 4 	1 	1	1.12 	${glob_coulcut}
pair_coeff		1 4 	1 	1	1.12 	10
pair_coeff		2 2 	${glob_ljeps} 	${glob_ljsig}	${att_ljcut} 	${glob_coulcut}
pair_coeff		2 2 	1 	${glob_ljsig}	${att_ljcut} 	${glob_coulcut}
pair_coeff		2 2 	1 	1	${att_ljcut} 	${glob_coulcut}
pair_coeff		2 2 	1 	1	2.5 	${glob_coulcut}
pair_coeff		2 2 	1 	1	2.5 	10
pair_coeff		2 3 	${glob_ljeps} 	${glob_ljsig}	${rep_ljcut} 	${glob_coulcut}
pair_coeff		2 3 	1 	${glob_ljsig}	${rep_ljcut} 	${glob_coulcut}
pair_coeff		2 3 	1 	1	${rep_ljcut} 	${glob_coulcut}
pair_coeff		2 3 	1 	1	1.12 	${glob_coulcut}
pair_coeff		2 3 	1 	1	1.12 	10
pair_coeff		2 4 	${glob_ljeps} 	${glob_ljsig}	${att_ljcut} 	${glob_coulcut}
pair_coeff		2 4 	1 	${glob_ljsig}	${att_ljcut} 	${glob_coulcut}
pair_coeff		2 4 	1 	1	${att_ljcut} 	${glob_coulcut}
pair_coeff		2 4 	1 	1	2.5 	${glob_coulcut}
pair_coeff		2 4 	1 	1	2.5 	10
pair_coeff		3 3 	${glob_ljeps} 	${glob_ljsig}	${rep_ljcut} 	${glob_coulcut}
pair_coeff		3 3 	1 	${glob_ljsig}	${rep_ljcut} 	${glob_coulcut}
pair_coeff		3 3 	1 	1	${rep_ljcut} 	${glob_coulcut}
pair_coeff		3 3 	1 	1	1.12 	${glob_coulcut}
pair_coeff		3 3 	1 	1	1.12 	10
pair_coeff		3 4 	${glob_ljeps} 	${glob_ljsig}	${att_ljcut} 	${glob_coulcut}
pair_coeff		3 4 	1 	${glob_ljsig}	${att_ljcut} 	${glob_coulcut}
pair_coeff		3 4 	1 	1	${att_ljcut} 	${glob_coulcut}
pair_coeff		3 4 	1 	1	2.5 	${glob_coulcut}
pair_coeff		3 4 	1 	1	2.5 	10
pair_coeff		4 4 	${glob_ljeps} 	${glob_ljsig}	${rep_ljcut} 	${glob_coulcut}
pair_coeff		4 4 	1 	${glob_ljsig}	${rep_ljcut} 	${glob_coulcut}
pair_coeff		4 4 	1 	1	${rep_ljcut} 	${glob_coulcut}
pair_coeff		4 4 	1 	1	1.12 	${glob_coulcut}
pair_coeff		4 4 	1 	1	1.12 	10


fix             noDriftRot 	all momentum 10 linear 1 1 1 angular
fix             nvt1 		all nvt temp ${Temp} ${Temp} 0.5
fix             nvt1 		all nvt temp 1 ${Temp} 0.5
fix             nvt1 		all nvt temp 1 1 0.5

# dump          assemble 	all custom 1000 				${outputfile_selfasb} id type xu yu zu vx vy vz
dump            lindump 	all custom ${subsample_rate} 	${outputfile_trajlin} id type xu yu zu vx vy vz
dump            lindump 	all custom 1000 	${outputfile_trajlin} id type xu yu zu vx vy vz
dump            lindump 	all custom 1000 	6_b_trajlin.data id type xu yu zu vx vy vz

run             ${runtime}
run             1000000
Generated 0 of 6 mixed pair_coeff terms from geometric mixing rule
Neighbor list info ...
  update every 1 steps, delay 10 steps, check yes
  max neighbors/atom: 2000, page size: 100000
  master list distance cutoff = 10.3
  ghost atom cutoff = 10.3
  binsize = 5.15, bins = 7 7 7
  1 neighbor lists, perpetual/occasional/extra = 1 0 0
  (1) pair lj/cut/coul/cut, perpetual
      attributes: half, newton on
      pair build: half/bin/newton
      stencil: half/bin/3d
      bin: standard
Per MPI rank memory allocation (min/avg/max) = 7.712 | 7.712 | 7.712 Mbytes
   Step          Temp         Density         Press          TotEng         PotEng         KinEng         E_pair         S/CPU     
         0   1.1904942      0.0023323615  -0.0011587828   22.021359      20.253475      1.7678839     -0.29485846     0            
      1000   0.99467311     0.0023323615  -0.00057431974  21.377003      19.899913      1.4770896     -0.46262342     33391.912    
      2000   1.0348392      0.0023323615   0.0027821205   21.424267      19.887531      1.5367362     -0.60105934     31276.751    
      3000   0.94764007     0.0023323615  -0.0012514219   21.317873      19.910628      1.4072455     -0.61936855     26731.742    
      4000   1.0558486      0.0023323615  -0.00016641037  21.331774      19.763839      1.5679352     -0.75342299     21384.946    
      5000   0.95126753     0.0023323615   0.0017850766   21.17581       19.763178      1.4126323     -0.91834596     19665.794    
      6000   1.0836232      0.0023323615   0.001387548    21.008736      19.399555      1.6091805     -1.1293614      18968.104    
      7000   0.93667082     0.0023323615  -0.0002888953   20.918047      19.52709       1.3909562     -1.0484088      18584.017    
      8000   1.0394562      0.0023323615   0.0012804735   21.008966      19.465373      1.5435925     -0.95797326     18420.377    
      9000   1.0296048      0.0023323615  -0.0008612897   20.983821      19.454858      1.5289631     -1.0830336      18764.39     
     10000   0.86946832     0.0023323615  -0.0043863675   20.694528      19.403367      1.2911605     -1.0253984      18814.684    
     11000   1.0359094      0.0023323615   0.00020000124  20.920851      19.382525      1.5383255     -1.1059677      18612.943    
     12000   1.0347209      0.0023323615  -0.00027473038  20.876846      19.340285      1.5365605     -1.0980776      18711.642    
     13000   1.034667       0.0023323615   0.0023289015   21.249064      19.712584      1.5364806     -0.85941747     18921.435    
     14000   1.0637594      0.0023323615   8.5010346e-05  20.959015      19.379332      1.5796827     -1.0647893      18812.375    
     15000   1.1274438      0.0023323615   0.00079215259  21.306398      19.632144      1.6742541     -0.82637084     18845.575    
     16000   0.97260747     0.0023323615  -0.00063715197  20.836306      19.391983      1.4443221     -1.1000674      18798.755    
     17000   0.9869883      0.0023323615   0.0048396803   20.908865      19.443187      1.4656776     -1.0498519      18601.288    
     18000   0.89912566     0.0023323615   0.0039600358   20.471491      19.136289      1.3352016     -1.3933208      18554.456    
     19000   0.97811924     0.0023323615  -0.0038846057   20.86579       19.413283      1.4525071     -1.1681785      18534.668    
     20000   1.06148        0.0023323615   0.00030715747  20.86234       19.286043      1.5762977     -1.2286593      18489.564    
     21000   1.0316724      0.0023323615   0.0019359307   20.705958      19.173924      1.5320335     -1.2614483      18435.718    
     22000   1.0090906      0.0023323615   0.0016728306   20.770462      19.271963      1.4984996     -1.2296594      18542.653    
     23000   0.9587156      0.0023323615   0.00021970729  20.58663       19.162937      1.4236927     -1.2569188      18498.511    
     24000   1.0415819      0.0023323615   0.0010589618   20.486749      18.94          1.5467492     -1.4714766      18468.602    
     25000   1.089672       0.0023323615  -0.0010215671   21.135818      19.517655      1.618163      -0.91877949     18500.458    
     26000   1.0058412      0.0023323615  -0.00065200312  20.879125      19.385451      1.4936742     -1.0965878      18596.1      
     27000   1.0253061      0.0023323615  -0.0037669094   21.093278      19.570698      1.5225796     -0.98273636     18725.673    
     28000   1.131692       0.0023323615   0.0038631676   21.104763      19.4242        1.6805626     -1.098122       18929.171    
     29000   0.96751226     0.0023323615   0.00060660946  20.737687      19.300932      1.4367557     -1.194831       18920.696    
     30000   0.88029322     0.0023323615  -0.0022231155   20.812514      19.505279      1.3072354     -0.978473       18835.419    
     31000   0.9226362      0.0023323615  -0.0036833761   20.991076      19.620961      1.3701148     -0.98042304     19292.154    
     32000   0.89033611     0.0023323615   0.0009329181   20.837032      19.514883      1.3221491     -0.94878141     19566.885    
     33000   0.95956181     0.0023323615  -0.0022460665   21.101423      19.676474      1.4249493     -0.8343926      19405.596    
     34000   1.0134838      0.0023323615   0.00084803431  20.853466      19.348442      1.5050235     -1.0864137      19176.938    
     35000   1.0055218      0.0023323615   0.003532836    21.004413      19.511213      1.4931998     -1.0166521      18677.21     
     36000   0.80838283     0.0023323615  -0.00014309129  20.580265      19.379816      1.2004485     -1.1154815      18587.875    
     37000   0.95878778     0.0023323615  -0.001906772    20.871148      19.447348      1.4237999     -1.0836894      18511.363    
     38000   0.96466771     0.0023323615  -0.00024168537  20.757043      19.324512      1.4325316     -1.1492271      18474.513    
     39000   0.87832287     0.0023323615   5.732476e-05   20.750041      19.445732      1.3043095     -1.2661775      18525.686    
     40000   1.0774044      0.0023323615   0.00088773164  20.809035      19.209089      1.5999455     -1.2970803      18441.826    
     41000   0.97494351     0.0023323615  -0.0050955111   20.916619      19.468828      1.4477911     -1.2453967      18341.209    
     42000   1.0172481      0.0023323615  -0.0025957662   20.977983      19.46737       1.5106135     -1.0722436      18586.287    
     43000   1.0434585      0.0023323615   0.001910775    20.732577      19.183041      1.5495359     -1.2467341      18746.36     
     44000   0.90893616     0.0023323615  -0.0024337422   20.951162      19.601392      1.3497702     -0.99958201     18744.297    
     45000   0.97115239     0.0023323615   8.9858298e-05  20.966995      19.524833      1.4421613     -0.96265468     18711.881    
     46000   1.0508535      0.0023323615   0.0016322114   21.216494      19.655976      1.5605175     -0.96696385     18786.372    
     47000   1.0542535      0.0023323615   0.00055258874  20.879741      19.314175      1.5655664     -1.2760312      18715.751    
     48000   1.1123017      0.0023323615   0.0018197027   20.97233       19.320562      1.6517681     -1.2284899      18671.707    
     49000   1.0596237      0.0023323615  -0.0017506166   21.263819      19.690278      1.5735412     -0.85172179     18679.716    
     50000   1.031982       0.0023323615  -0.0015232185   21.028693      19.4962        1.5324932     -1.0141099      18633.305    
     51000   0.990507       0.0023323615  -0.0046016815   20.82603       19.355127      1.4709029     -1.24387        18691.777    
     52000   0.93859325     0.0023323615  -0.00041086226  20.585835      19.192024      1.393811      -1.3139693      18582.906    
     53000   0.9549451      0.0023323615   0.0010525459   20.93993       19.521837      1.4180935     -1.0745167      18475.022    
     54000   1.0298172      0.0023323615  -0.0015800224   21.031126      19.501848      1.5292786     -1.0664206      18637.727    
     55000   1.0137059      0.0023323615   0.00025111267  21.023599      19.518245      1.5053533     -0.95785652     19096.521    
     56000   0.9515611      0.0023323615   0.0031224969   20.865556      19.452488      1.4130682     -1.2022158      19418.858    
     57000   1.1435333      0.0023323615   0.00060099525  21.352555      19.654408      1.6981469     -0.93859281     19733.098    
     58000   0.93278371     0.0023323615  -0.00026664174  21.088114      19.70293       1.3851838     -0.82440714     19422.652    
     59000   0.89126218     0.0023323615  -0.0016199465   20.780897      19.457372      1.3235243     -1.0492722      18980.101    
     60000   0.95134932     0.0023323615  -0.0042505995   21.073398      19.660645      1.4127537     -0.91171501     18914.518    
     61000   0.87118216     0.0023323615  -0.0016714878   20.920958      19.627252      1.2937055     -0.89388069     19388.049    
     62000   1.0091324      0.0023323615  -0.0017963891   21.119513      19.620952      1.4985615     -0.89715446     19623.832    
     63000   1.1012093      0.0023323615   0.00095966447  21.119147      19.483851      1.6352958     -0.99769324     18849.601    
     64000   1.0759021      0.0023323615   0.0037410173   20.938553      19.340839      1.5977146     -1.0868071      18633.618    
     65000   0.90931534     0.0023323615  -0.0016537255   20.733262      19.382929      1.3503333     -1.1049373      18561.998    
     66000   1.1072238      0.0023323615   0.0030143335   20.960812      19.316584      1.6442274     -1.1731738      18840.126    
     67000   1.0869565      0.0023323615   0.004990685    20.939755      19.325625      1.6141304     -1.1641101      18755.554    
     68000   1.0932507      0.0023323615   0.0050602621   21.42009       19.796613      1.6234773     -0.7646596      18780.006    
     69000   1.0552866      0.0023323615   0.00093841043  21.051408      19.484307      1.5671006     -1.0931007      18903.385    
     70000   0.93095597     0.0023323615  -0.00073970109  21.025691      19.643221      1.3824696     -0.89766126     18953.617    
     71000   0.99825213     0.0023323615  -0.0010257906   20.815066      19.332661      1.4824044     -1.1843078      18847.608    
     72000   1.1745934      0.0023323615   0.0019754815   21.232188      19.487916      1.7442712     -1.1118881      18479.417    
     73000   0.91972123     0.0023323615  -0.001679597    20.741496      19.37571       1.365786      -1.0927444      18509.069    
     74000   0.93817706     0.0023323615   0.0013068884   20.771514      19.378321      1.3931929     -1.1553909      18668.634    
     75000   0.92383385     0.0023323615   0.0019212036   20.960007      19.588114      1.3718933     -0.94484416     18710.958    
     76000   1.0331138      0.0023323615   0.00049521554  21.099658      19.565484      1.534174      -0.94306877     18565.658    
     77000   0.98482444     0.0023323615   0.0014451749   21.161908      19.699443      1.4624643     -0.92380416     18590.154    
     78000   0.86526125     0.0023323615  -0.002977304    20.770616      19.485703      1.284913      -0.95723064     18956.108    
     79000   0.89692455     0.0023323615   0.00099585873  20.783676      19.451743      1.331933      -1.0251809      18639.694    
     80000   1.0024416      0.0023323615  -0.00040663109  20.949918      19.461292      1.4886258     -1.1689935      18464.168    
     81000   1.0093001      0.0023323615   0.00012622911  20.717674      19.218863      1.4988107     -1.276327       18383.682    
     82000   0.88760396     0.0023323615   0.00055277294  20.913199      19.595107      1.3180919     -0.84045452     18548.78     
     83000   0.93835769     0.0023323615  -0.0014727335   20.820201      19.42674       1.3934612     -1.0764632      18694.176    
     84000   1.2128174      0.0023323615  -0.001485331    21.197123      19.396089      1.8010339     -1.2366257      18229.474    
     85000   0.90971164     0.0023323615  -0.0031903761   20.886236      19.535315      1.3509218     -1.124848       18265.188    
     86000   0.97936902     0.0023323615  -0.0010519361   20.720574      19.266211      1.454363      -1.2105686      18458.625    
     87000   0.9753364      0.0023323615  -9.0453685e-05  20.692873      19.244498      1.4483746     -1.1673072      18433.853    
     88000   0.95604103     0.0023323615   0.00043265795  20.910211      19.490491      1.4197209     -1.0118838      18722.474    
     89000   0.9840794      0.0023323615   0.0019007362   20.910643      19.449286      1.4613579     -0.99734808     18841.15     
     90000   1.0749855      0.0023323615  -0.0018624256   20.951248      19.354895      1.5963534     -1.1139953      18520.258    
     91000   0.97592883     0.0023323615  -0.00080607651  20.852428      19.403174      1.4492543     -1.142613       18439.472    
     92000   0.95050608     0.0023323615  -0.0041067433   20.945307      19.533805      1.4115015     -1.0610457      18519.066    
     93000   0.91618905     0.0023323615   0.00015455022  20.705776      19.345235      1.3605407     -1.1151243      18666.996    
     94000   1.0022854      0.0023323615  -0.0006362417   20.81975       19.331356      1.4883938     -1.2375866      18350.168    
     95000   0.93540424     0.0023323615  -0.00079979451  20.949403      19.560328      1.3890753     -1.0007172      18622.851    
     96000   0.93946534     0.0023323615   0.0065693686   20.692316      19.29721       1.395106      -1.1923681      18319.604    
     97000   1.0182445      0.0023323615   0.0031617845   20.910988      19.398895      1.5120931     -1.0592072      18468.445    
     98000   0.90388959     0.0023323615  -0.0018495011   20.607236      19.26496       1.342276      -1.2454382      18468.783    
     99000   1.0776167      0.0023323615   0.00083341114  20.929779      19.329518      1.6002608     -1.1167736      18400.94     
    100000   0.91617384     0.0023323615   0.00029680627  21.003173      19.642655      1.3605181     -0.81914822     18560.745    
    101000   1.0585454      0.0023323615   0.00023257184  21.153709      19.581769      1.5719399     -0.85438563     18622.559    
    102000   0.91120376     0.0023323615   0.00056751733  20.691482      19.338345      1.3531376     -1.2238216      18400.227    
    103000   1.001451       0.0023323615  -0.0013226039   20.697793      19.210638      1.4871547     -1.321369       18327.903    
    104000   1.1044455      0.0023323615   0.0011461739   20.819246      19.179144      1.6401016     -1.295175       18329.235    
    105000   0.97443836     0.0023323615  -0.0031194355   20.703425      19.256384      1.447041      -1.2051283      18421.629    
    106000   0.93382958     0.0023323615  -0.0010745338   20.836503      19.449766      1.3867369     -1.1307507      18691.522    
    107000   1.07954        0.0023323615   0.0025140385   20.972379      19.369262      1.603117      -1.1378887      18487.259    
    108000   0.96407158     0.0023323615  -0.00058035262  20.658059      19.226413      1.4316463     -1.1851653      18608.283    
    109000   0.99403655     0.0023323615   0.00055238964  20.821273      19.345128      1.4761443     -1.1929431      18747.709    
    110000   1.1836189      0.0023323615  -0.0012363836   21.067297      19.309623      1.7576741     -1.1490206      18551.252    
    111000   0.92557042     0.0023323615   0.001736761    20.735818      19.361346      1.3744721     -1.1980966      18441.884    
    112000   1.0055223      0.0023323615  -0.0031821862   20.979487      19.486286      1.4932006     -1.0054361      18691.987    
    113000   1.0210188      0.0023323615  -0.00072057056  21.151461      19.635248      1.516213      -0.95758465     19113.119    
    114000   0.93625948     0.0023323615   0.00062237188  20.662576      19.27223       1.3903453     -1.2335397      18893.176    
    115000   0.92008069     0.0023323615  -0.0010675822   20.900937      19.534617      1.3663198     -1.0346413      18645.923    
    116000   1.0275612      0.0023323615  -0.0013075488   21.105578      19.57965       1.5259284     -0.93036185     18609.952    
    117000   0.89771175     0.0023323615  -2.7097234e-05  20.583088      19.249986      1.333102      -1.2297016      18534.131    
    118000   0.93135732     0.0023323615  -4.6894392e-05  20.84009       19.457024      1.3830656     -1.1005462      18533.942    
    119000   0.98252496     0.0023323615  -0.0002477101   21.020851      19.561801      1.4590496     -0.99391309     18630.248    
    120000   0.92738518     0.0023323615  -0.002102776    20.584286      19.207119      1.377167      -1.3060226      18812.705    
    121000   0.83878962     0.0023323615  -0.0028707268   20.658948      19.413345      1.2456026     -1.0223055      18753.739    
    122000   0.99662311     0.0023323615   0.0021251189   20.951537      19.471551      1.4799853     -0.98265974     18891.989    
    123000   1.0557322      0.0023323615   0.0013833286   21.209011      19.641248      1.5677623     -0.9394951      19236.245    
    124000   1.1580059      0.0023323615   0.0029486746   21.132832      19.413194      1.7196387     -1.1458815      19435.909    
    125000   1.0624263      0.0023323615   0.005047179    21.127596      19.549893      1.577703      -1.0645237      19116.381    
    126000   0.89417984     0.0023323615   0.00036980261  20.706478      19.378621      1.3278571     -1.0690196      18729.739    
    127000   0.80780636     0.0023323615   0.0017797849   20.500175      19.300583      1.1995924     -1.2428386      18489.331    
    128000   0.87422918     0.0023323615  -0.00062073234  20.89907       19.600839      1.2982303     -0.9907939      18475.169    
    129000   1.0377428      0.0023323615  -0.0019026905   21.005158      19.46411       1.5410481     -1.0858483      18735.15     
    130000   1.0268189      0.0023323615   0.00073201133  20.834738      19.309911      1.5248261     -1.3016046      18500.259    
    131000   1.124342       0.0023323615   0.00090311316  21.067646      19.397999      1.6696479     -1.1026173      18479.205    
    132000   1.1384974      0.0023323615  -0.00053554012  20.924827      19.234158      1.6906686     -1.1746466      18421.323    
    133000   0.85342776     0.0023323615   0.00084428262  20.410868      19.143528      1.2673402     -1.3815298      18384.098    
    134000   1.2063155      0.0023323615   0.0032693851   21.118863      19.327485      1.7913785     -1.1359804      18337.883    
    135000   1.0776108      0.0023323615  -0.00092714918  20.880317      19.280065      1.600252      -1.3035643      18405.996    
    136000   1.0736891      0.0023323615   0.0026184006   21.261209      19.666781      1.5944284     -1.0629924      18618.741    
    137000   0.95606085     0.0023323615  -0.003186621    20.851608      19.431858      1.4197504     -1.1605973      18587.633    
    138000   0.9931311      0.0023323615  -0.00064956195  21.018462      19.543662      1.4747997     -1.06634        18535.467    
    139000   1.0262883      0.0023323615   0.0037464374   20.741654      19.217616      1.5240381     -1.3032667      18513.869    
    140000   0.98719606     0.0023323615  -0.0015609925   20.935858      19.469872      1.4659861     -1.1281691      18457.042    
    141000   1.1129533      0.0023323615  -0.00010989703  21.025673      19.372938      1.6527356     -1.2396021      18534.655    
    142000   0.95012215     0.0023323615   0.0018469478   20.954506      19.543575      1.4109314     -1.0244837      18394.117    
    143000   0.96520832     0.0023323615   0.0005748716   20.703446      19.270112      1.4333343     -1.0924262      18450.327    
    144000   0.88110275     0.0023323615  -0.00018367621  20.9098        19.601362      1.3084376     -1.0830302      18477.139    
    145000   0.96662059     0.0023323615  -0.0025962303   20.825081      19.389649      1.4354316     -1.1717322      18431.606    
    146000   0.95474258     0.0023323615   0.0032641758   20.828352      19.410559      1.4177927     -1.081011       18363.051    
    147000   0.84623589     0.0023323615   0.00044088208  20.740126      19.483466      1.2566603     -0.98572675     18671.386    
    148000   0.86037229     0.0023323615  -0.00077023567  20.822982      19.545329      1.2776528     -0.9816199      18694.127    
    149000   0.99234528     0.0023323615   0.00069720536  20.925348      19.451715      1.4736327     -1.0180521      18707.476    
    150000   0.92730174     0.0023323615  -0.0027898786   20.971513      19.59447       1.3770431     -0.87694901     18700.722    
    151000   0.93688607     0.0023323615   0.00045840986  20.728959      19.337683      1.3912758     -1.0839658      18830.341    
    152000   1.0763675      0.0023323615  -0.0023824892   21.141438      19.543032      1.5984057     -1.0826048      18620.395    
    153000   0.98865958     0.0023323615   0.0022254475   20.860805      19.392645      1.4681595     -1.0313584      18596.187    
    154000   1.0282759      0.0023323615   0.0022424029   20.900796      19.373807      1.5269898     -1.1831816      18591.293    
    155000   0.93302834     0.0023323615   0.0086218806   20.889579      19.504032      1.3855471     -1.2918166      18660.802    
    156000   1.1347777      0.0023323615   0.0028722435   21.03982       19.354675      1.6851449     -1.197275       18659.329    
    157000   0.79616917     0.0023323615  -0.0033872785   20.79461       19.612299      1.1823112     -0.96255422     18654.845    
    158000   0.827967       0.0023323615   0.0036370193   20.323278      19.093747      1.229531      -1.4299613      18357.624    
    159000   1.0123448      0.0023323615   0.002807068    20.80063       19.297298      1.503332      -1.3070613      18377.995    
    160000   1.1754736      0.0023323615   0.0032630671   20.934858      19.18928       1.7455783     -1.2391503      18409.258    
    161000   1.072433       0.0023323615  -0.0016834478   20.811487      19.218924      1.592563      -1.32378        18553.149    
    162000   1.1635978      0.0023323615  -0.0029906939   21.272143      19.544201      1.7279428     -0.99542214     18355.989    
    163000   0.99271784     0.0023323615   0.00027135137  20.905815      19.431629      1.474186      -1.0825122      18561.702    
    164000   0.95732572     0.0023323615  -0.001245981    20.991503      19.569874      1.4216287     -0.92721603     18716.091    
    165000   1.0075938      0.0023323615  -0.0067642359   21.075964      19.579687      1.4962768     -0.96273247     18747.497    
    166000   0.98404683     0.0023323615  -0.00076344539  20.786144      19.324834      1.4613095     -1.1683883      18464.687    
    167000   0.94274401     0.0023323615  -0.0021618114   20.75744       19.357465      1.3999749     -1.0877076      18315.341    
    168000   0.93622039     0.0023323615   0.003328583    21.021482      19.631195      1.3902873     -0.92887384     18699.453    
    169000   1.0714525      0.0023323615  -0.0049472199   21.151444      19.560337      1.5911069     -0.90347135     18674.711    
    170000   0.85324331     0.0023323615   0.004770683    20.728644      19.461578      1.2670663     -1.0569214      18521.956    
    171000   0.88708203     0.0023323615   0.00066767087  20.66005       19.342733      1.3173168     -1.1959846      18367.251    
    172000   1.0489104      0.0023323615  -0.00045629082  20.995088      19.437456      1.5576319     -1.0505785      18424.737    
    173000   1.006882       0.0023323615  -0.0035693883   20.954545      19.459325      1.4952197     -1.1377311      18585.1      
    174000   0.91629253     0.0023323615   0.0023784843   20.907333      19.546638      1.3606944     -0.9713711      18727.156    
    175000   0.92116484     0.0023323615   0.0023378476   20.501606      19.133676      1.3679298     -1.3298097      18611.149    
    176000   1.0692255      0.0023323615  -0.00024122978  20.834906      19.247107      1.5877999     -1.2057741      18579.81     
    177000   1.0281647      0.0023323615   0.0029651101   20.888987      19.362163      1.5268246     -1.1300814      18514.951    
    178000   1.1079058      0.0023323615  -0.0017357071   21.18749       19.54225       1.6452401     -1.0543876      18542.326    
    179000   1.043699       0.0023323615  -0.00020146352  21.093988      19.544096      1.549893      -0.89064258     18750.255    
    180000   1.0653151      0.0023323615   0.00059976028  21.025658      19.443665      1.5819929     -1.114325       18678.223    
    181000   1.0228708      0.0023323615   0.0019050187   20.785134      19.266171      1.5189631     -1.1127329      18590.123    
    182000   0.87979762     0.0023323615   0.0012146639   20.573784      19.267284      1.3064995     -1.2150509      18604.232    
    183000   1.0122069      0.0023323615   0.0032815952   20.745281      19.242154      1.5031273     -1.3014521      18550.042    
    184000   1.0845019      0.0023323615  -0.0038991929   20.949085      19.338599      1.6104853     -1.2801476      18663.858    
    185000   0.92804118     0.0023323615   0.0031252923   20.511082      19.13294       1.3781412     -1.2407438      18581.713    
    186000   0.8422066      0.0023323615  -0.00083134654  20.849946      19.599269      1.2506768     -0.95513014     18608.981    
    187000   1.0124501      0.0023323615  -0.0037668095   20.769657      19.266169      1.5034884     -1.1409725      18607.763    
    188000   1.1941575      0.0023323615   0.0014410536   20.981664      19.20834       1.7733238     -1.3214827      18227.986    
    189000   1.0894677      0.0023323615   0.0019639776   20.846596      19.228736      1.6178595     -1.2171683      18414.903    
    190000   1.0661729      0.0023323615   0.003231502    20.84158       19.258313      1.5832668     -1.1591773      18460.254    
    191000   1.0095809      0.0023323615  -0.00018834027  20.784661      19.285433      1.4992277     -1.1882419      18447.105    
    192000   1.0618732      0.0023323615   0.00036041653  20.947193      19.370311      1.5768818     -1.259397       18644.593    
    193000   1.0486485      0.0023323615  -0.00020558361  21.288527      19.731284      1.557243      -0.87259122     18770.396    
    194000   1.0645565      0.0023323615   0.00071952138  21.02962       19.448753      1.5808664     -1.0411869      18446.413    
    195000   1.1144785      0.0023323615  -0.0017583599   21.214128      19.559128      1.6550005     -0.91026981     18682.548    
    196000   0.94278877     0.0023323615   0.0013987685   20.761071      19.36103       1.4000413     -1.2371291      18716.874    
    197000   1.0126427      0.0023323615  -0.0022978298   21.295027      19.791252      1.5037744     -0.77711602     18813.769    
    198000   1.1251355      0.0023323615   0.0031046196   21.052772      19.381945      1.6708262     -1.0502275      18796.808    
    199000   0.90843285     0.0023323615   0.00089618879  20.751778      19.402755      1.3490228     -1.1100483      18591.909    
    200000   0.83556194     0.0023323615   0.0020991411   20.67745       19.436641      1.2408095     -1.0478029      18354.319    
    201000   1.1102364      0.0023323615  -0.00057440255  21.340315      19.691614      1.6487011     -0.86927108     18501.645    
    202000   1.0908425      0.0023323615   0.0016849949   21.211789      19.591888      1.6199011     -0.90987273     18544.676    
    203000   1.0898777      0.0023323615  -3.9322636e-05  20.929398      19.310929      1.6184684     -1.0925002      18549.221    
    204000   0.94737928     0.0023323615  -0.0030891746   20.996104      19.589246      1.4068582     -1.0572322      18478.411    
    205000   0.97336718     0.0023323615  -0.00152069     20.751905      19.306454      1.4454503     -1.1181643      18550.504    
    206000   0.97016561     0.0023323615   0.00073202062  20.861101      19.420405      1.4406959     -1.039506       18532.535    
    207000   0.91558667     0.0023323615  -0.0017709353   20.934219      19.574573      1.3596462     -1.004379       18476.897    
    208000   1.0286653      0.0023323615   0.00061452261  21.068226      19.540658      1.527568      -1.002454       18488.378    
    209000   0.95050612     0.0023323615  -0.00013983374  20.673866      19.262364      1.4115016     -1.2522123      18517.386    
    210000   0.99852918     0.0023323615  -0.0035702016   21.218472      19.735656      1.4828158     -0.91210933     18346.135    
    211000   0.94636678     0.0023323615  -0.0039301277   20.783271      19.377916      1.4053547     -1.0978852      18544.159    
    212000   0.99092118     0.0023323615  -0.0028184825   20.93501       19.463492      1.471518      -1.1361729      18634.363    
    213000   0.92318517     0.0023323615  -0.0028968392   21.039273      19.668343      1.37093       -0.93622306     18784.512    
    214000   0.93579251     0.0023323615   0.0036976588   20.96201       19.572359      1.3896519     -0.9502739      18805.382    
    215000   0.93139753     0.0023323615   0.0034106073   20.54015       19.157025      1.3831253     -1.3546507      18698.921    
    216000   0.88864488     0.0023323615   0.0021611556   20.82613       19.506492      1.3196377     -1.0410719      18491.126    
    217000   0.93787048     0.0023323615  -0.0045912169   20.952595      19.559858      1.3927377     -1.1091862      18473.145    
    218000   1.0853527      0.0023323615  -0.0010124095   21.204056      19.592307      1.6117488     -0.91510184     18728.909    
    219000   1.1048384      0.0023323615  -0.0043790308   21.100575      19.45989       1.640685      -1.0263398      18572.533    
    220000   0.94980573     0.0023323615   0.00019522288  21.070274      19.659813      1.4104615     -0.89738425     18649.177    
    221000   1.0097822      0.0023323615  -0.0049276273   20.81377       19.314244      1.4995265     -1.2061545      18663.848    
    222000   1.0423346      0.0023323615  -0.0011010887   20.73729       19.189423      1.5478669     -1.2942818      18562.979    
    223000   1.1918476      0.0023323615  -0.00075938848  20.943083      19.17319       1.7698936     -1.2405859      18551.935    
    224000   0.98709506     0.0023323615   0.0015332382   20.918309      19.452473      1.4658362     -0.97866584     18476.643    
    225000   0.970686       0.0023323615   8.6463865e-05  21.324021      19.882553      1.4414687     -0.6500699      18931.81     
    226000   0.96510037     0.0023323615  -0.0021261982   20.848448      19.415274      1.433174      -1.0069674      19054.066    
    227000   0.88942118     0.0023323615   0.00026340218  20.941325      19.620535      1.3207905     -0.86582152     19135.919    
    228000   0.88821014     0.0023323615   0.0023140099   20.591431      19.272439      1.3189921     -1.1809333      18887.474    
    229000   0.96517446     0.0023323615  -0.0016165068   20.748998      19.315714      1.4332841     -1.2429717      18535.618    
    230000   0.97779037     0.0023323615   0.002377995    20.813414      19.361396      1.4520187     -1.0001969      18815.138    
    231000   0.98024411     0.0023323615   0.0029317964   21.212622      19.75696       1.4556625     -0.83112057     18965.217    
    232000   0.97304644     0.0023323615  -0.0017160409   21.341999      19.897025      1.444974      -0.82572592     19337.318    
    233000   1.0760193      0.0023323615   0.0018970801   21.235279      19.63739       1.5978886     -0.85875275     19321.955    
    234000   1.0348233      0.0023323615   0.0019641206   21.016892      19.480179      1.5367126     -1.0349262      18963.92     
    235000   1.0312972      0.0023323615   0.00024267701  21.048712      19.517235      1.5314764     -1.0187262      18685.696    
    236000   0.91799395     0.0023323615   0.0035293616   20.929757      19.566536      1.363221      -1.0050441      18572.754    
    237000   1.0352264      0.0023323615   0.0017608424   21.017574      19.480263      1.5373112     -1.0226946      18482.726    
    238000   0.85434079     0.0023323615   0.0028627919   20.693412      19.424716      1.2686961     -1.0881012      18499.166    
    239000   0.95618927     0.0023323615  -0.00078378109  20.9447        19.524759      1.4199411     -0.9845748      18639.544    
    240000   1.0842767      0.0023323615  -0.00025215278  20.900749      19.290598      1.6101509     -1.1344993      18401.2      
    241000   0.96071205     0.0023323615   0.00045373457  20.929         19.502342      1.4266574     -1.1309027      18422.23     
    242000   0.99113135     0.0023323615   0.003525502    20.849899      19.378069      1.4718301     -1.1112284      18603.58     
    243000   1.1766373      0.0023323615  -0.0042643849   21.248756      19.50145       1.7473064     -1.1194245      18610.261    
    244000   1.1035694      0.0023323615  -0.0014855959   21.119267      19.480467      1.6388006     -1.0594111      18635.8      
    245000   1.0223368      0.0023323615  -0.00042984828  20.965951      19.44778       1.5181701     -1.0850332      18715.961    
    246000   1.0682762      0.0023323615  -0.0042031499   21.144801      19.558411      1.5863902     -0.96732203     18747.557    
    247000   0.97121975     0.0023323615  -0.00051997422  21.039042      19.596781      1.4422613     -0.94275117     18866.007    
    248000   0.99736776     0.0023323615  -0.0037714861   21.223846      19.742755      1.4810911     -0.86172687     18982.851    
    249000   0.95036015     0.0023323615   0.0013672714   20.912747      19.501462      1.4112848     -0.99589892     18734.225    
    250000   1.1189015      0.0023323615   0.0031022224   20.940536      19.278967      1.6615688     -1.1956546      18735.076    
    251000   1.0372696      0.0023323615   0.0013435783   20.820665      19.28032       1.5403453     -1.0900714      18720.96     
    252000   0.99167629     0.0023323615   0.0027975971   20.907777      19.435137      1.4726393     -1.0818487      18681.244    
    253000   1.1123309      0.0023323615  -0.0019077527   21.236327      19.584515      1.6518113     -1.0042959      18554.497    
    254000   1.0100091      0.0023323615   0.0009188987   21.093712      19.593848      1.4998635     -1.0407597      18598.918    
    255000   0.94214074     0.0023323615   0.0014942383   20.869285      19.470206      1.399079      -1.1229865      18363.034    
    256000   1.1759831      0.0023323615   0.0024683014   21.312008      19.565673      1.7463349     -1.0099313      18461.08     
    257000   1.030862       0.0023323615   0.001976856    20.872711      19.341881      1.5308301     -1.0749899      18398.447    
    258000   1.1162302      0.0023323615  -0.0016785405   20.97729       19.319689      1.6576019     -1.1028295      18563.842    
    259000   0.97082761     0.0023323615  -0.0036699518   21.074321      19.632642      1.441679      -0.9680083      18606.056    
    260000   1.1138615      0.0023323615  -0.003328012    21.000373      19.346289      1.6540844     -1.1445365      18502.941    
    261000   0.80583364     0.0023323615   0.0015277928   20.605312      19.408649      1.196663      -1.1677768      18482.288    
    262000   0.94313628     0.0023323615   8.6253539e-05  20.733366      19.332808      1.4005574     -1.1024627      18519.042    
    263000   1.0562779      0.0023323615   0.00088767152  21.079052      19.51048       1.5685726     -0.97852426     18462.754    
    264000   1.0435881      0.0023323615   0.00011216747  20.924036      19.374307      1.5497283     -1.1092325      18658.593    
    265000   0.88281418     0.0023323615  -0.00060966165  20.402915      19.091936      1.3109791     -1.3121258      18497.177    
    266000   1.0481407      0.0023323615  -0.00039214541  20.805743      19.249254      1.5564889     -1.2004113      18715.54     
    267000   1.0129441      0.0023323615   0.0026039602   20.817199      19.312977      1.504222      -1.1885112      18674.383    
    268000   0.98039218     0.0023323615  -0.00052958041  20.866095      19.410212      1.4558824     -1.1500214      18594.289    
    269000   1.0843134      0.0023323615  -0.0018868314   20.909116      19.298911      1.6102055     -1.1753577      18512.629    
    270000   0.89224063     0.0023323615   0.001753851    20.840568      19.51559       1.3249773     -1.0403417      18376.557    
    271000   1.1745573      0.0023323615  -0.0029510188   21.210551      19.466333      1.7442176     -1.1382281      18548.356    
    272000   1.1397984      0.0023323615  -0.0019520093   21.234923      19.542323      1.6926006     -1.0140754      18613.728    
    273000   1.0042074      0.0023323615   0.00057998036  21.140752      19.649504      1.491248      -0.83916334     18676.99     
    274000   0.92955925     0.0023323615   8.8276074e-05  20.983213      19.602817      1.3803955     -1.0385171      18560.145    
    275000   0.94590997     0.0023323615  -0.0035137835   20.819629      19.414953      1.4046763     -1.1628853      18447.153    
    276000   1.0803497      0.0023323615   0.00027965618  21.26664       19.662321      1.6043193     -1.0487717      18628.096    
    277000   1.2200747      0.0023323615   0.0018090961   21.472782      19.660971      1.8118109     -0.94870477     18493.342    
    278000   1.0853095      0.0023323615  -0.000963028    20.759338      19.147654      1.6116846     -1.2999249      18519.204    
    279000   0.92360537     0.0023323615   0.00084063867  20.810791      19.439237      1.371554      -1.1372119      18379.325    
    280000   1.0185337      0.0023323615  -0.00063479884  20.672779      19.160257      1.5125226     -1.2524923      18293.502    
    281000   0.98385585     0.0023323615   0.0052330303   20.719237      19.258211      1.4610259     -1.2616669      18473.08     
    282000   1.1342004      0.0023323615   0.0033782923   20.922536      19.238248      1.6842876     -1.2310613      18751.53     
    283000   1.1375131      0.0023323615   0.0020082576   21.053031      19.363824      1.689207      -1.1349571      18551.576    
    284000   1.0719439      0.0023323615   0.0021454705   20.815967      19.22413       1.5918367     -1.2410193      18481.748    
    285000   1.1150789      0.0023323615  -0.00089119316  21.110507      19.454615      1.6558921     -1.0762798      18502.845    
    286000   1.017174       0.0023323615   0.00064363991  20.717613      19.207109      1.5105034     -1.2867207      18646.735    
    287000   0.94911218     0.0023323615  -0.00079802849  20.703456      19.294025      1.4094316     -1.1400716      18670.488    
    288000   0.83976775     0.0023323615   0.0010778687   20.577232      19.330177      1.2470551     -1.2035664      18659.954    
    289000   0.91105773     0.0023323615   0.00035004621  20.84383       19.490909      1.3529207     -1.0774642      18645.819    
    290000   0.95990897     0.0023323615  -0.002189182    20.896693      19.471228      1.4254648     -1.0185958      18727.806    
    291000   0.94269788     0.0023323615   0.0039212608   20.931056      19.53115       1.3999064     -0.95505229     18647.815    
    292000   1.0770581      0.0023323615  -0.0012185208   21.150781      19.551349      1.5994313     -0.981157       18637.508    
    293000   1.1257101      0.0023323615   0.00043030801  21.197515      19.525835      1.6716795     -1.1394745      18684.248    
    294000   0.99278423     0.0023323615  -0.00011467338  20.882366      19.408081      1.4742846     -1.1257362      18551.173    
    295000   0.87875937     0.0023323615   0.0074845408   20.327549      19.022592      1.3049577     -1.4199728      18533.987    
    296000   0.92691212     0.0023323615   0.0014882863   20.740351      19.363887      1.3764645     -1.0125496      18414.539    
    297000   0.83957173     0.0023323615  -0.001283593    20.796026      19.549262      1.246764      -0.9171203      18512.588    
    298000   1.036658       0.0023323615   0.00073700043  20.976705      19.437268      1.5394371     -1.1822401      18639.53     
    299000   0.94455054     0.0023323615  -0.0012928271   20.617919      19.215261      1.4026576     -1.2246748      18464.629    
    300000   0.91557534     0.0023323615   0.0014819753   20.716922      19.357293      1.3596294     -1.0808173      18571.652    
    301000   0.89033807     0.0023323615  -0.0031624869   21.071216      19.749064      1.322152      -0.89903503     18586.57     
    302000   0.90110707     0.0023323615  -0.0029915068   20.883937      19.545793      1.338144      -1.0326314      18596.305    
    303000   1.0390196      0.0023323615   0.0028731105   20.556843      19.013899      1.5429441     -1.3470046      18514.539    
    304000   1.0545396      0.0023323615  -0.00019660012  21.096611      19.530619      1.5659914     -1.1211288      18467.423    
    305000   1.0046994      0.0023323615   0.0021321893   20.845713      19.353735      1.4919787     -1.1849963      18503.892    
    306000   1.1188371      0.0023323615  -0.00053708975  21.083892      19.422419      1.6614731     -1.0639567      18614.627    
    307000   1.0171408      0.0023323615  -0.00092536118  21.068891      19.558437      1.5104541     -1.0160148      18583.795    
    308000   1.2314628      0.0023323615   0.00042893278  21.360174      19.531452      1.8287223     -1.123911       18751.143    
    309000   0.84266164     0.0023323615  -0.0026434647   20.680777      19.429425      1.2513525     -1.198477       18576.252    
    310000   1.0069603      0.0023323615   0.005096123    20.969601      19.474265      1.495336      -1.0485479      18559.424    
    311000   0.99854981     0.0023323615   0.00042830238  20.994623      19.511776      1.4828465     -1.0551341      18676.626    
    312000   1.1180012      0.0023323615  -0.00046467236  21.143593      19.483361      1.6602319     -0.98829706     18729.542    
    313000   1.1510832      0.0023323615  -0.0029068613   21.078902      19.369543      1.7093586     -1.1245006      18722.403    
    314000   1.0834685      0.0023323615  -0.0023787793   20.875204      19.266254      1.6089507     -1.2102863      18581.713    
    315000   1.0488794      0.0023323615  -0.0023972299   20.82402       19.266434      1.5575858     -1.3316513      18629.56     
    316000   1.0712683      0.0023323615   0.0014721179   21.145858      19.555024      1.5908335     -1.0124139      18548.232    
    317000   1.0532901      0.0023323615   0.0020950215   20.852332      19.288196      1.5641358     -1.121862       18652.213    
    318000   1.042973       0.0023323615   0.0027671085   20.905176      19.356361      1.548815      -1.1704213      18506.907    
    319000   0.96204882     0.0023323615   1.8131103e-06  20.666235      19.237593      1.4286425     -1.2223219      18467.813    
    320000   0.89008954     0.0023323615  -0.0013058459   20.873507      19.551724      1.321783      -0.93812165     18559.196    
    321000   0.99336683     0.0023323615  -0.00093420297  20.910303      19.435153      1.4751497     -1.0333306      18676.343    
    322000   0.99160759     0.0023323615   0.0015406134   20.842829      19.370291      1.4725373     -1.3038027      18543.859    
    323000   1.0395745      0.0023323615  -0.0010414008   20.574228      19.030459      1.5437681     -1.3692084      18375.424    
    324000   0.93983204     0.0023323615   0.0020404209   20.905669      19.510018      1.3956506     -0.99689512     18485.708    
    325000   1.084895       0.0023323615   0.0022984085   20.930233      19.319163      1.6110691     -1.2100724      18440.974    
    326000   0.92027118     0.0023323615  -0.0048221034   21.010116      19.643513      1.3666027     -1.0189677      18503.116    
    327000   0.92704511     0.0023323615   0.0003513082   20.637447      19.260785      1.376662      -1.2124434      18382.561    
    328000   0.87246012     0.0023323615  -0.0027010929   20.488805      19.193202      1.2956033     -1.4013055      18347.166    
    329000   1.1395133      0.0023323615  -0.0008411762   20.896863      19.204686      1.6921773     -1.2086491      18393.591    
    330000   0.98949016     0.0023323615  -0.00095458833  20.887568      19.418175      1.4693929     -1.2234663      18270.732    
    331000   0.94081226     0.0023323615   0.0014091173   20.865062      19.467956      1.3971062     -1.0737039      18408.188    
    332000   0.965064       0.0023323615   0.00096981049  21.048354      19.615234      1.43312       -0.91073089     18663.813    
    333000   1.1119539      0.0023323615  -8.5627164e-05  21.210574      19.559323      1.6512516     -0.97938271     18829.016    
    334000   1.0393945      0.0023323615  -0.00094702961  20.974763      19.431263      1.5435009     -1.057172       18563.663    
    335000   0.96074719     0.0023323615   0.0012682268   20.864914      19.438204      1.4267096     -1.0208552      18582.737    
    336000   0.97257928     0.0023323615  -0.00021774476  21.011173      19.566892      1.4442802     -1.034033       18688.722    
    337000   0.94397474     0.0023323615   0.0028108911   21.213995      19.812192      1.4018025     -0.79512327     18605.793    
    338000   0.88720241     0.0023323615  -0.00080292689  20.648641      19.331145      1.3174956     -1.0839216      18617.432    
    339000   0.95644627     0.0023323615  -0.0015903945   20.841374      19.421051      1.4203227     -1.058573       18599.826    
    340000   0.95998961     0.0023323615  -0.00018649666  21.134578      19.708994      1.4255846     -0.79563443     18449.581    
    341000   1.0072549      0.0023323615  -0.0017243131   20.98345       19.487677      1.4957735     -1.049212       18711.39     
    342000   0.87947131     0.0023323615  -0.0012629019   20.802199      19.496184      1.3060149     -1.1082008      18549.89     
    343000   0.85864304     0.0023323615  -0.001246265    20.843666      19.568581      1.2750849     -0.94988661     18638.441    
    344000   0.90371875     0.0023323615  -0.0049358002   20.860082      19.51806       1.3420223     -1.0570262      18574.164    
    345000   0.92889235     0.0023323615  -3.3450939e-05  21.040113      19.660707      1.3794051     -0.91849491     18696.038    
    346000   0.97860175     0.0023323615  -0.0019250235   20.724401      19.271178      1.4532236     -1.3024025      18623.723    
    347000   0.85034134     0.0023323615   0.0010994149   20.51501       19.252253      1.2627569     -1.2290403      18302.613    
    348000   0.94409787     0.0023323615  -0.0025832339   21.018623      19.616638      1.4019853     -0.87690249     18466.446    
    349000   0.97928786     0.0023323615   0.0034059688   20.828797      19.374555      1.4542425     -0.98051575     18394.55     
    350000   0.97576971     0.0023323615  -0.0035271617   20.997864      19.548846      1.449018      -0.94943372     18667.565    
    351000   0.96881186     0.0023323615  -0.00095598597  20.687258      19.248572      1.4386856     -1.204297       18629.296    
    352000   0.86338791     0.0023323615   0.0037021465   20.952375      19.670244      1.282131      -0.96666449     18672.332    
    353000   1.0131077      0.0023323615   0.0053255551   20.917063      19.412598      1.5044649     -1.0935129      18715.287    
    354000   1.1432057      0.0023323615  -0.0012454524   21.409055      19.711394      1.6976604     -0.9955836      18829.08     
    355000   0.92136815     0.0023323615  -0.0044912278   20.915842      19.54761       1.3682317     -1.0249114      18865.947    
    356000   0.94618931     0.0023323615  -0.0045991561   20.998622      19.593531      1.4050911     -1.0973059      18644.433    
    357000   0.98740311     0.0023323615   0.0019487853   20.924824      19.45853       1.4662936     -1.0238068      18555.711    
    358000   1.0151737      0.0023323615  -0.001882122    20.940172      19.432639      1.5075329     -1.1322637      18687.819    
    359000   1.0267133      0.0023323615  -0.0016837859   21.065739      19.54107       1.5246692     -1.0205281      18704.903    
    360000   1.1128968      0.0023323615  -0.0013740644   21.106913      19.454261      1.6526518     -0.99465996     18757.408    
    361000   1.0454369      0.0023323615   0.00027963618  21.488048      19.935574      1.5524738     -0.69100402     18818.217    
    362000   1.0190805      0.0023323615   0.0013430955   20.974145      19.46081       1.5133345     -1.0336712      18853.691    
    363000   0.83674472     0.0023323615   0.0026402526   21.123031      19.880465      1.2425659     -0.76562577     18781.451    
    364000   0.94582881     0.0023323615   0.00092763714  21.139786      19.73523       1.4045558     -0.84249501     18740.771    
    365000   1.0704207      0.0023323615   0.0016570384   21.064324      19.474749      1.5895747     -1.0408328      18673.202    
    366000   1.0565504      0.0023323615  -0.0054709996   21.295037      19.726059      1.5689773     -0.93904841     18874.049    
    367000   0.92521507     0.0023323615  -0.0070111367   20.961045      19.587101      1.3739444     -1.0488893      18785.148    
    368000   0.89710009     0.0023323615  -0.0011479812   20.867307      19.535114      1.3321936     -1.0830492      18603.504    
    369000   0.95175144     0.0023323615  -0.0036951913   20.911583      19.498232      1.4133509     -1.1099126      18741.492    
    370000   0.98406798     0.0023323615  -0.0021894611   20.984212      19.522871      1.4613409     -1.0684355      18766.638    
    371000   1.0788192      0.0023323615   0.0018211113   21.091476      19.48943       1.6020465     -0.94329116     18882.853    
    372000   0.88593343     0.0023323615   0.0023196899   21.127055      19.811444      1.3156111     -0.8687418      18713.495    
    373000   1.0070549      0.0023323615  -0.00029498817  20.912561      19.417085      1.4954766     -0.90312812     18703.784    
    374000   1.1075833      0.0023323615  -0.00061497802  21.243484      19.598723      1.6447612     -0.92546799     19054.113    
    375000   0.87290511     0.0023323615  -0.005088815    20.658902      19.362638      1.2962641     -1.2381158      18796.37     
    376000   1.2305976      0.0023323615   0.0016886755   21.287662      19.460224      1.8274375     -1.0286673      18637.936    
    377000   0.9848855      0.0023323615   0.0036864487   20.72108       19.258525      1.462555      -1.2442172      18626.632    
    378000   0.92887977     0.0023323615   0.006527419    20.764916      19.38553       1.3793865     -1.1479617      18574.098    
    379000   0.85615886     0.0023323615   0.00074009177  20.621449      19.350053      1.2713959     -1.1113641      18687.62     
    380000   0.96329514     0.0023323615  -0.00037029384  20.77749       19.346997      1.4304933     -1.0727699      18590.933    
    381000   0.98896428     0.0023323615   0.0050171502   21.265349      19.796737      1.468612      -0.83570033     18857.229    
    382000   0.98675517     0.0023323615  -0.0013227267   21.000519      19.535188      1.4653314     -0.96207199     18712.782    
    383000   1.0205145      0.0023323615  -0.0032598727   20.956037      19.440573      1.5154641     -1.0310179      18689.814    
    384000   0.99274397     0.0023323615   0.0004862156   20.756934      19.282709      1.4742248     -1.1759143      18600.904    
    385000   0.89916518     0.0023323615   0.0026539161   20.770059      19.434798      1.3352603     -1.0717598      18530.13     
    386000   0.96475713     0.0023323615  -0.00090794129  20.678847      19.246182      1.4326643     -1.2356017      18577.49     
    387000   0.99843332     0.0023323615  -0.00040739907  20.553168      19.070495      1.4826735     -1.3932123      18558.896    
    388000   1.1292036      0.0023323615  -0.00069391646  20.919509      19.242641      1.6768673     -1.2468712      18555.438    
    389000   0.98157678     0.0023323615  -0.0037999027   20.799996      19.342354      1.4576415     -1.111742       18490.05     
    390000   1.0504077      0.0023323615  -0.0026245935   20.981911      19.422056      1.5598555     -1.0493215      18431.466    
    391000   0.92579579     0.0023323615   0.00012660405  21.003005      19.628198      1.3748067     -0.97490632     18588.54     
    392000   1.0456981      0.0023323615   0.0011897605   20.987998      19.435136      1.5528617     -1.0182238      18661.335    
    393000   0.98781975     0.0023323615  -0.0056755908   20.94991       19.482998      1.4669123     -1.1184318      18651.739    
    394000   1.0823772      0.0023323615   0.0033806067   21.263799      19.656469      1.6073302     -0.81007874     18912.995    
    395000   1.0754331      0.0023323615  -0.0018245522   21.251163      19.654145      1.5970182     -0.92919742     19034.336    
    396000   0.97319983     0.0023323615  -0.0030004723   21.094757      19.649555      1.4452017     -0.86416798     19095.403    
    397000   0.90832664     0.0023323615   0.0039210119   20.662825      19.31396       1.3488651     -1.1276785      18701.692    
    398000   0.93750017     0.0023323615   0.00097355034  20.722409      19.330222      1.3921877     -1.1956965      18610.795    
    399000   1.1093599      0.0023323615   0.0024684168   21.26253       19.615131      1.6473994     -0.93262142     18618.995    
    400000   1.079661       0.0023323615  -0.0029525531   20.957005      19.353709      1.6032965     -1.0762477      18565.79     
    401000   1.023413       0.0023323615   0.0016496736   20.944161      19.424393      1.5197683     -1.0282506      18324.009    
    402000   1.01104        0.0023323615  -0.0021710381   21.315104      19.81371       1.5013944     -0.89191886     18752.108    
    403000   1.039074       0.0023323615  -0.0002210462   21.032771      19.489747      1.5430249     -1.1190549      18589.645    
    404000   1.0860266      0.0023323615   0.0021770529   21.130817      19.518068      1.6127495     -0.99054124     18609.484    
    405000   1.1504119      0.0023323615  -0.0043286541   21.072848      19.364486      1.7083616     -1.2852759      18651.996    
    406000   1.0214502      0.0023323615   0.00034270769  20.798873      19.282019      1.5168536     -1.2062896      18484.561    
    407000   0.96098672     0.0023323615   0.0039703541   20.666491      19.239426      1.4270653     -1.2018581      18524.768    
    408000   0.90100927     0.0023323615   0.00015540856  20.667681      19.329683      1.3379988     -1.1549087      18364.572    
    409000   1.0430211      0.0023323615   0.0006076928   20.928912      19.380025      1.5488863     -1.1574455      18509.605    
    410000   1.0437737      0.0023323615   0.0029266524   21.076473      19.526469      1.550004      -1.0938869      18670.418    
[...]
    861000   1.0804682      0.0023323615  -0.00027399578  20.995925      19.39143       1.6044953     -0.9568417      18644.391    
    862000   0.95190354     0.0023323615   0.0011161685   20.77947       19.365893      1.4135768     -1.1700753      18746.152    
    863000   0.98345244     0.0023323615  -0.0030582526   20.856189      19.395762      1.4604269     -1.1244299      18633.511    
    864000   0.90600551     0.0023323615   0.0044065596   20.605247      19.259829      1.3454182     -1.1679302      18629.368    
    865000   0.95610772     0.0023323615  -0.001672       20.853874      19.434054      1.41982       -1.0166873      18581.803    
    866000   1.0649735      0.0023323615   0.0008844075   20.987098      19.405612      1.5814857     -1.1468288      18529.204    
    867000   1.0441939      0.0023323615   0.0027243053   21.327004      19.776377      1.5506279     -0.75803148     18693.16     
    868000   1.0624641      0.0023323615  -0.00068827049  21.025506      19.447747      1.5777591     -0.97096932     18704.075    
    869000   0.96129086     0.0023323615  -0.0024558433   20.957175      19.529658      1.4275169     -0.92300112     19082.195    
    870000   0.92086302     0.0023323615  -0.0043161341   21.331937      19.964456      1.3674816     -0.73825232     20135.031    
    871000   0.99326167     0.0023323615  -0.0037949291   21.242642      19.767648      1.4749936     -0.84164042     20910.646    
    872000   1.0789493      0.0023323615   0.002362838    21.416204      19.813964      1.6022398     -0.69203622     22794.867    
    873000   0.82632184     0.0023323615  -0.00091490619  20.978671      19.751583      1.2270879     -0.61964508     23546.134    
    874000   1.0158686      0.0023323615  -0.0015868738   21.339771      19.831206      1.5085648     -0.75853293     22649.013    
    875000   1.0157692      0.0023323615   0.0009577642   21.177064      19.668647      1.5084172     -0.79394276     20248.224    
    876000   0.99536822     0.0023323615  -0.0043785751   21.191573      19.713452      1.4781218     -0.77313961     19247.604    
    877000   0.96664232     0.0023323615  -0.00075250347  21.146679      19.711215      1.4354638     -0.78284671     18705.624    
    878000   0.90413274     0.0023323615  -0.0026477425   20.831854      19.489217      1.3426371     -0.98913635     18583.74     
    879000   0.93978387     0.0023323615   0.00016706341  20.739132      19.343553      1.395579      -1.0638512      18586.74     
    880000   0.98171844     0.0023323615   0.0026494639   20.987569      19.529718      1.4578519     -1.0715509      18728.252    
    881000   0.98349652     0.0023323615   0.0034249357   20.625848      19.165356      1.4604923     -1.2134856      19179.429    
    882000   0.88346752     0.0023323615   0.0013294814   20.869627      19.557678      1.3119493     -0.95455021     18783.434    
    883000   1.0492066      0.0023323615  -0.0017960139   20.987483      19.429411      1.5580718     -1.0601404      18608.665    
    884000   1.0596607      0.0023323615  -0.0016613809   21.087126      19.51353       1.5735962     -1.0204632      18687.2      
    885000   1.0810164      0.0023323615   0.0011211725   21.216248      19.610938      1.6053094     -1.0336843      18641.414    
    886000   0.9280881      0.0023323615   0.001385973    20.824486      19.446275      1.3782108     -1.1880893      18556.929    
    887000   0.98386004     0.0023323615  -0.00054356533  21.057271      19.596238      1.4610322     -1.0055077      18560.324    
    888000   0.94761054     0.0023323615   0.00011487494  20.79043       19.383228      1.4072017     -1.0243439      18704.047    
    889000   0.9425098      0.0023323615  -0.0020092269   20.759745      19.360118      1.3996271     -1.0826377      18876.829    
    890000   1.0130235      0.0023323615   0.001488525    21.167701      19.663362      1.5043399     -0.90343525     19116.055    
    891000   1.0918994      0.0023323615  -0.0014384059   21.133651      19.51218       1.6214706     -0.96390105     18988.557    
    892000   1.0066255      0.0023323615   0.001574876    20.849791      19.354952      1.4948389     -1.1862562      18605.643    
    893000   0.99689872     0.0023323615  -0.0027575614   20.725437      19.245043      1.4803946     -1.2281386      18556.26     
    894000   0.90337844     0.0023323615   0.0028029561   20.636176      19.294659      1.341517      -1.2368254      18593.897    
    895000   0.94128577     0.0023323615  -0.00046383755  20.960223      19.562413      1.3978094     -1.080501       18782.879    
    896000   0.9954329      0.0023323615   0.0032973494   20.525262      19.047044      1.4782179     -1.442677       18627.526    
    897000   1.0678136      0.0023323615   0.00018738584  21.022314      19.436611      1.5857032     -1.1235246      18507.717    
    898000   1.0919596      0.0023323615   0.0013330502   21.078494      19.456934      1.62156       -1.1112051      18566.438    
    899000   0.89795141     0.0023323615  -0.00015601217  20.63896       19.305502      1.3334578     -1.2393563      18802.57     
    900000   1.0040151      0.0023323615  -5.4535615e-05  20.72619       19.235227      1.4909624     -1.3408189      18443.915    
    901000   0.9413977      0.0023323615  -0.0013588766   20.735966      19.33799       1.3979756     -1.1611457      18249.645    
    902000   1.0435949      0.0023323615  -7.3466227e-05  20.641815      19.092077      1.5497384     -1.2417903      18333.77     
    903000   0.93183896     0.0023323615  -0.0020315088   20.751576      19.367795      1.3837809     -1.1150863      18557.522    
    904000   1.0335047      0.0023323615  -0.0002976084   20.920027      19.385273      1.5347546     -1.0734531      18998.688    
    905000   0.95183205     0.0023323615  -0.00096277603  20.673449      19.259978      1.4134706     -1.1799846      18605.838    
    906000   1.0865493      0.0023323615  -0.0025240173   20.803746      19.19022       1.6135257     -1.3004358      18560.038    
    907000   0.96592384     0.0023323615  -0.00028024791  20.84324       19.408843      1.4343969     -1.1505239      18698.119    
    908000   0.99001445     0.0023323615   0.0041179352   21.055464      19.585293      1.4701715     -0.96142369     18753.369    
    909000   1.0050137      0.0023323615  -0.00011637795  20.868574      19.376129      1.4924453     -1.1144545      18682.803    
    910000   1.0106196      0.0023323615  -0.00018807116  20.841091      19.34032       1.5007701     -1.1881396      18615.2      
    911000   0.88658771     0.0023323615  -0.0022792336   20.676211      19.359628      1.3165827     -1.1943986      18520.485    
    912000   0.89055112     0.0023323615   0.00016218393  20.952305      19.629837      1.3224684     -0.86897677     18644.893    
    913000   0.91949224     0.0023323615  -0.0010541896   20.80476       19.439314      1.365446      -1.1015496      18712.649    
    914000   0.9477543      0.0023323615   0.0067836247   20.904586      19.497171      1.4074151     -1.1016442      18676.361    
    915000   1.1356364      0.0023323615   0.00012550431  21.108741      19.422321      1.68642       -1.1452518      18599.212    
    916000   1.0632147      0.0023323615  -0.00092319804  20.893422      19.314548      1.5788738     -1.2641867      18580.53     
    917000   0.9913129      0.0023323615  -0.0025176264   20.923881      19.451781      1.4720997     -1.1150099      18600.449    
    918000   1.1504327      0.0023323615   0.0010902901   20.871624      19.163232      1.7083925     -1.2278427      18573.266    
    919000   1.081588       0.0023323615  -0.0021936938   20.978653      19.372495      1.6061581     -1.1123651      18633.976    
    920000   1.0412818      0.0023323615  -0.0021579284   21.044913      19.49861       1.5463035     -0.95778827     18647.4      
    921000   0.92092661     0.0023323615   0.00052879193  20.577489      19.209913      1.367576      -1.2596281      18546.392    
    922000   0.928609       0.0023323615  -0.00022202506  20.801175      19.42219       1.3789844     -1.0467089      18643.071    
    923000   0.92768532     0.0023323615  -0.00036727852  20.746924      19.369311      1.3776127     -1.1153023      18593.62     
    924000   0.86399938     0.0023323615   0.0017352186   20.560201      19.277162      1.2830391     -1.1802988      18536.038    
    925000   0.96507047     0.0023323615  -0.0025996616   20.791844      19.358714      1.4331297     -1.1808798      18582.764    
    926000   0.99223163     0.0023323615  -0.00015933738  21.051657      19.578193      1.473464      -0.98233491     18534.92     
    927000   1.0239509      0.0023323615  -0.00035716258  20.838884      19.318316      1.5205671     -1.157888       18428.706    
    928000   0.9910865      0.0023323615  -0.00029027569  21.06395       19.592186      1.4717634     -0.95755682     18452.272    
    929000   0.98722207     0.0023323615   0.00072095003  20.874495      19.40847       1.4660248     -1.1814221      18590.167    
    930000   1.1324159      0.0023323615  -0.0015685248   21.033697      19.352059      1.6816376     -1.253228       18571.237    
    931000   1.0294193      0.0023323615   0.00032830511  21.027298      19.49861       1.5286876     -0.97017295     18698.301    
    932000   1.1032466      0.0023323615   0.00086352058  21.136533      19.498212      1.6383211     -1.1060149      18661.552    
    933000   1.1682661      0.0023323615   0.0018766055   21.146058      19.411183      1.7348752     -1.0833868      18758.716    
    934000   1.0936949      0.0023323615  -0.0043113002   21.05298       19.428843      1.6241369     -1.1296385      18762.715    
    935000   0.8212453      0.0023323615   0.00059455211  20.575304      19.355754      1.2195493     -1.1315301      18732.488    
    936000   1.1073691      0.0023323615  -0.00061227942  21.207698      19.563255      1.6444432     -0.94771796     18604.125    
    937000   1.0982657      0.0023323615  -0.0033370227   21.240839      19.609914      1.6309246     -1.0067427      18862.588    
    938000   0.93899594     0.0023323615  -0.0018798676   21.040784      19.646375      1.394409      -0.85115968     18753.302    
    939000   0.96549945     0.0023323615   0.0023097614   20.607556      19.173789      1.4337667     -1.2282664      18626.778    
    940000   0.99407843     0.0023323615  -0.0019477017   20.964664      19.488457      1.4762065     -1.0442462      18633.382    
    941000   0.9930218      0.0023323615   0.0023704813   20.891054      19.416417      1.4746374     -1.1275671      18579.298    
    942000   1.0942846      0.0023323615   0.0013534638   21.160965      19.535953      1.6250126     -1.0539815      18503.439    
    943000   1.0978377      0.0023323615   8.4949203e-05  20.859596      19.229307      1.630289      -1.2227073      18484.171    
    944000   0.88266963     0.0023323615   5.8235706e-06  20.768515      19.45775       1.3107644     -1.0505471      18500.02     
    945000   1.0189116      0.0023323615   0.00033861889  20.609682      19.096599      1.5130837     -1.3590395      18513.57     
    946000   1.1198721      0.0023323615   0.0034913326   20.99534       19.332329      1.6630101     -1.1492314      18546.616    
    947000   0.9410526      0.0023323615   0.0027692826   20.627676      19.230213      1.3974631     -1.1299647      18500.314    
    948000   1.1008089      0.0023323615  -0.0019019464   21.122104      19.487403      1.6347012     -1.0793276      18673.335    
    949000   0.95762956     0.0023323615   0.0011259475   20.829123      19.407044      1.4220799     -1.1707496      18611.586    
    950000   0.97520493     0.0023323615  -0.0025005613   20.954718      19.506539      1.4481793     -1.0081511      18538.906    
    951000   1.0184124      0.0023323615  -0.0012990963   20.840419      19.328076      1.5123424     -1.0455323      18668.34     
    952000   0.958375       0.0023323615  -0.0010562404   20.918627      19.49544       1.4231869     -1.07265        18623.699    
    953000   0.92705109     0.0023323615  -0.0038787903   20.992585      19.615915      1.3766709     -0.85768254     18832.213    
    954000   0.92881496     0.0023323615  -0.0015113052   20.967152      19.587862      1.3792902     -0.94211725     19166.616    
    955000   0.91068459     0.0023323615  -0.0018854945   20.987072      19.634705      1.3523666     -0.85682081     19310.726    
    956000   1.0988985      0.0023323615  -0.0036467065   21.279664      19.6478        1.6318643     -0.9190778      18932.313    
    957000   1.0735514      0.0023323615   0.0023074661   21.229418      19.635194      1.5942238     -0.98685975     18897.669    
    958000   1.0770624      0.0023323615   0.0013396638   21.256944      19.657507      1.5994377     -0.85682125     18709.061    
    959000   1.0196134      0.0023323615  -0.0022018118   21.261744      19.747618      1.5141259     -0.86123251     18859.944    
    960000   1.0191085      0.0023323615   0.0011007636   21.226894      19.713518      1.5133761     -0.99331022     18768.578    
    961000   1.0179905      0.0023323615  -0.001891227    21.299786      19.78807       1.511716      -0.98389187     18739.747    
    962000   1.015596       0.0023323615   7.4662865e-05  20.894282      19.386122      1.50816       -1.1317132      18375.505    
    963000   1.1026193      0.0023323615  -0.00066065419  21.264244      19.626854      1.6373896     -0.87127392     18561.408    
    964000   1.1386525      0.0023323615   0.00036712961  21.145893      19.454994      1.6908989     -1.103465       18730.955    
    965000   0.90696149     0.0023323615  -0.0024179677   21.05954       19.712702      1.3468378     -0.97065286     18590.281    
    966000   0.8449625      0.0023323615  -0.003067055    20.824248      19.569478      1.2547693     -1.0202656      18672.06     
    967000   0.94359766     0.0023323615   0.0073914465   20.838832      19.437589      1.4012425     -1.044065       18765.692    
    968000   1.0658327      0.0023323615  -0.002948907    21.334671      19.751909      1.5827616     -0.74522158     18976.607    
    969000   1.1007451      0.0023323615   0.0020402848   21.200059      19.565453      1.6346064     -0.8513085      19034.956    
    970000   0.96210316     0.0023323615  -0.0027473895   20.898485      19.469762      1.4287232     -1.030736       18777.836    
    971000   1.01929        0.0023323615   0.0035159233   21.077166      19.56352       1.5136457     -0.92529396     18775.993    
    972000   1.0500721      0.0023323615   0.0024474833   20.921817      19.362459      1.5593571     -1.1345955      18623.64     
    973000   0.91113534     0.0023323615   0.0023668219   20.656091      19.303055      1.353036      -1.222929       18590.694    
    974000   0.86064762     0.0023323615  -0.0041876623   20.77059       19.492529      1.2780617     -1.0367213      18552.431    
    975000   0.89940412     0.0023323615   0.0016398942   20.594982      19.259367      1.3356151     -1.2701839      18611.101    
    976000   0.95124882     0.0023323615   0.00094292546  20.922825      19.510221      1.4126045     -1.060127       18529.542    
    977000   1.0377296      0.0023323615   0.0002982238   21.010299      19.469271      1.5410284     -0.96222632     18777.787    
    978000   0.96358504     0.0023323615  -0.0013965175   20.751877      19.320953      1.4309238     -1.1838601      18587.356    
    979000   0.9286097      0.0023323615   0.0011746187   20.943203      19.564217      1.3789854     -0.99467808     18617.873    
    980000   1.0158643      0.0023323615   0.005504327    21.11742       19.608862      1.5085584     -0.95588307     18808.09     
    981000   1.1205096      0.0023323615  -0.0020635046   21.297596      19.633639      1.6639567     -0.96306265     19122.021    
    982000   1.0407528      0.0023323615  -0.0048093765   21.028127      19.482609      1.5455179     -1.1407328      19054.175    
    983000   1.0439383      0.0023323615   0.0025023964   20.793428      19.243179      1.5502484     -1.199603       18705.702    
    984000   1.0237602      0.0023323615   0.0040664915   20.855659      19.335375      1.5202839     -1.1287929      18563.445    
    985000   0.99111049     0.0023323615   0.001209742    20.663258      19.191459      1.4717991     -1.1890957      18595.193    
    986000   0.95074638     0.0023323615   0.0034651186   21.140289      19.728431      1.4118584     -0.80889297     19398.445    
    987000   0.9922419      0.0023323615  -0.0016588984   21.072111      19.598632      1.4734792     -0.8324427      19678.616    
    988000   1.081072       0.0023323615  -0.00060550812  21.517054      19.911662      1.6053919     -0.75202994     18838.007    
    989000   1.0351779      0.0023323615  -0.0011879004   20.911049      19.373809      1.5372391     -1.1745393      18845.892    
    990000   0.95798779     0.0023323615  -0.0020013966   20.661941      19.239329      1.4226119     -1.2876057      18574.358    
    991000   1.0208315      0.0023323615   0.0032572119   21.040983      19.525048      1.5159348     -1.0002662      18612.655    
    992000   0.90964272     0.0023323615   0.0044207489   20.584415      19.233595      1.3508194     -1.2870551      18572.301    
    993000   0.93187183     0.0023323615  -0.00033694046  20.917454      19.533625      1.3838297     -1.0677953      18577.801    
    994000   1.0332158      0.0023323615  -0.0033329873   20.864737      19.330412      1.5343254     -1.1517195      18546.75     
    995000   1.181723       0.0023323615   0.0036131768   20.921156      19.166297      1.7548586     -1.2586642      18628.447    
    996000   1.0360176      0.0023323615  -0.0001175184   20.888493      19.350007      1.5384862     -1.1325937      18611.361    
    997000   1.0901535      0.0023323615   0.0031520688   20.956301      19.337423      1.618878      -1.1557018      18608.12     
    998000   1.0485594      0.0023323615  -0.0018922086   21.017001      19.459891      1.5571107     -1.0544361      18613.173    
    999000   0.96287561     0.0023323615  -0.001147137    20.741017      19.311147      1.4298703     -1.2151582      18594.67     
   1000000   0.88280439     0.0023323615  -0.00010936016  20.99903       19.688065      1.3109645     -0.88933884     18641.964    
Loop time of 53.471 on 1 procs for 1000000 steps with 100 atoms

Performance: 8079145.733 tau/day, 18701.726 timesteps/s
99.4% CPU use with 1 MPI tasks x 1 OpenMP threads

MPI task timing breakdown:
Section |  min time  |  avg time  |  max time  |%varavg| %total
---------------------------------------------------------------
Pair    | 44.463     | 44.463     | 44.463     |   0.0 | 83.15
Bond    | 1.2625     | 1.2625     | 1.2625     |   0.0 |  2.36
Neigh   | 3.8319     | 3.8319     | 3.8319     |   0.0 |  7.17
Comm    | 1.3982     | 1.3982     | 1.3982     |   0.0 |  2.61
Output  | 0.21502    | 0.21502    | 0.21502    |   0.0 |  0.40
Modify  | 1.939      | 1.939      | 1.939      |   0.0 |  3.63
Other   |            | 0.3615     |            |       |  0.68

Nlocal:            100 ave         100 max         100 min
Histogram: 1 0 0 0 0 0 0 0 0 0
Nghost:            310 ave         310 max         310 min
Histogram: 1 0 0 0 0 0 0 0 0 0
Neighs:           4851 ave        4851 max        4851 min
Histogram: 1 0 0 0 0 0 0 0 0 0

Total # of neighbors = 4851
Ave neighs/atom = 48.51
Ave special neighs/atom = 1.98
Neighbor list builds = 97962
Dangerous builds = 80525

write_data      ${outputfile_assembled} nofix nocoeff
write_data      7_assembled.data nofix nocoeff
System init for write_data ...
Generated 0 of 6 mixed pair_coeff terms from geometric mixing rule

Total wall time: 0:00:54
