LAMMPS data file via write_data, version 23 Jun 2022, timestep = 1000000

100 atoms
4 atom types
99 bonds
1 bond types

0 35 xlo xhi
0 35 ylo yhi
0 35 zlo zhi

Masses

1 1
2 1
3 1
4 1

Atoms # full

98 1 3 -1 12.491536372092614 34.45207375895573 25.6123436870707 0 0 0
97 1 2 0 12.779543855357195 0.39589726348784277 25.637788167808797 0 1 0
76 1 4 1 14.337002089636883 0.2531358703068889 26.220601901268875 0 1 0
95 1 2 0 11.48118259370757 34.677982703430324 26.37689739426048 0 0 0
96 1 4 1 12.015344405239894 0.4090330605146939 26.31516719487517 0 1 0
77 1 3 -1 14.921391997286948 34.76658029964739 26.892077362568955 0 0 0
75 1 1 0 13.976759587122372 0.015897225025093855 25.35898513426633 0 1 0
74 1 2 0 13.231977436820266 34.879193433630284 24.762213601847947 0 0 0
81 1 3 -1 15.22851046255565 33.84890846382798 28.04573948759498 0 0 0
78 1 4 1 14.62480487346165 0.5257882572974949 27.373121731318896 0 1 0
79 1 3 -1 14.307088124487985 0.1035191186927929 28.224762888137068 0 1 0
80 1 2 0 15.079141267018471 34.61553660631369 28.589425495138993 0 0 0
73 1 2 0 12.530028330260214 34.58450366044913 24.260513620988114 0 0 0
72 1 4 1 13.305584557597706 34.486337955301295 23.6487683573607 0 0 0
83 1 3 -1 13.929071421577316 33.777729124777686 28.42954253476203 0 0 0
66 1 2 0 13.673338401917677 34.65748499030423 27.266915513064948 0 0 0
18 1 2 0 14.544911532635183 30.82607863857406 26.325310816190104 0 0 0
100 1 4 1 11.597304070809816 34.393060761458656 24.721640331766128 0 0 0
99 1 2 0 11.641470554045977 33.916023436133564 25.575145104113087 0 0 0
55 1 4 1 10.42182867514277 34.251049617543636 26.30423977325505 0 0 0
53 1 1 0 10.035021425117858 33.18501137653109 25.160146878359974 0 0 0
52 1 4 1 10.725009442548101 32.55470336015041 24.96785909757216 0 0 0
54 1 3 -1 10.514863043071093 34.02715948093364 25.36749702274692 0 0 0
41 1 4 1 10.090081341342758 30.85030704342522 28.047257516224743 0 0 0
38 1 3 -1 10.363159013558784 30.588375716039813 26.5292591477836 0 0 0
39 1 3 -1 9.653663501327618 30.39333926803303 27.21264895066926 0 0 0
42 1 1 0 9.812017230754625 31.54135614945457 28.642948361779432 0 0 0
51 1 1 0 11.395236132892878 32.015545633275465 25.45909802428224 0 0 0
48 1 4 1 9.663043100704645 32.28948297114586 25.542553519712037 0 0 0
50 1 3 -1 11.185400523508147 31.524187672121318 24.655769531503246 0 0 0
49 1 2 0 10.30369473363177 31.667626267237374 25.105160569438727 0 0 0
34 1 3 -1 10.484418996269458 31.405929141003234 27.130604270938544 0 0 0
37 1 4 1 11.297371774279352 30.352653166130164 26.343551442242664 0 0 0
36 1 3 -1 11.909720652494643 30.099444152335412 27.010341256086168 0 0 0
35 1 2 0 11.103262997940087 30.59631424694311 27.31685973038632 0 0 0
40 1 3 -1 9.115810441301784 30.582081382873206 27.957302996509977 0 0 0
47 1 4 1 10.217610651296743 31.97598339130437 26.247038284148438 0 0 0
45 1 4 1 9.673106637671333 32.93196772074308 27.24924559496244 0 0 0
46 1 2 0 9.308657658933146 32.22383808935275 26.647211159906373 0 0 0
43 1 4 1 8.983606333553483 32.01390886695012 28.79889556831469 0 0 0
44 1 3 -1 9.53036030125214 32.51755373800315 28.11559364139038 0 0 0
57 1 2 0 10.16599707356105 33.07331539537944 26.123888939148614 0 0 0
56 1 3 -1 9.61325669508881 33.831797625013664 26.33665983088525 0 0 0
59 1 2 0 10.728119561919405 32.92641470871173 26.970808257235934 0 0 0
58 1 2 0 11.034322885329336 32.68807359802164 26.076614201185603 0 0 0
60 1 4 1 11.582604399362296 32.47157867607773 27.029883393982903 0 0 0
94 1 3 -1 10.739614688629025 0.23786114661241067 26.703604348945415 0 1 0
33 1 3 -1 10.655350873459097 32.20519494231279 27.647524401652593 0 0 0
62 1 3 -1 12.541616089079964 32.84344690391643 27.072932364184048 0 0 0
92 1 2 0 9.920767138797542 34.41680292426474 27.335986316163453 0 0 0
93 1 4 1 9.834007066326688 0.27899833000459545 26.872422089300116 0 1 0
91 1 2 0 10.265755544248963 33.75430302683919 27.8692209742154 0 0 0
90 1 1 0 11.16137573189437 34.119726115102715 27.790390433063582 0 0 0
89 1 4 1 11.216012103926433 33.192363624135496 28.079653545136228 0 0 0
68 1 2 0 13.896265692046327 34.1909990859252 26.31913866617431 0 0 0
82 1 4 1 14.7654267655142 33.109465315792846 28.50235246952635 0 0 0
17 1 3 -1 14.120305867246548 30.19659588259494 25.769904042596746 0 0 0
14 1 2 0 12.548366156380746 30.208742739520318 25.38646167901941 0 0 0
13 1 2 0 13.105639807813537 30.9905148780772 25.506183317933928 0 0 0
15 1 3 -1 12.717029685482984 29.338680911475574 25.863681033956716 0 0 0
16 1 1 0 13.196158970323221 30.117549163727208 26.128977278615178 0 0 0
21 1 3 -1 14.662896018489995 32.59441276915567 24.811426470432135 0 0 0
19 1 2 0 14.323623045883917 31.12228190220832 25.42498322826393 0 0 0
61 1 4 1 12.33348208389017 32.09509013196207 26.497579352309007 0 0 0
2 1 4 1 12.843394544320402 30.667320597802924 23.72434103073996 0 0 0
71 1 2 0 14.166960143452197 34.50518935786262 24.02945912305297 0 0 0
70 1 3 -1 14.595059693284513 33.82337512394441 24.582305849467602 0 0 0
4 1 2 0 13.368493429341806 31.99890793510199 23.518831242554796 0 0 0
3 1 2 0 12.581093328194134 31.497051903215205 23.400478061050666 0 0 0
31 1 4 1 11.489854330222325 31.57018328811022 27.600087658121105 0 0 0
64 1 4 1 12.637859767642988 33.6925088882761 26.310447392851273 0 0 0
63 1 2 0 11.810274887716947 33.394876464937425 26.724718664932375 0 0 0
27 1 3 -1 13.840030016501835 32.260815980717304 27.57509013809463 0 0 0
25 1 4 1 13.159911318225946 30.954438896722333 26.95887248671451 0 0 0
86 1 4 1 12.267409257885776 33.70278453640307 27.863450156180505 0 0 0
85 1 4 1 13.061832293173623 33.760004972225104 27.416795917939876 0 0 0
22 1 1 0 14.310501174412162 32.13612246117886 25.574912683625307 0 0 0
23 1 2 0 14.717028428641065 31.764462635601205 26.397338363450338 0 0 0
24 1 2 0 13.734325343474774 31.52352498678479 26.468597388123232 0 0 0
84 1 2 0 13.087878198575362 34.237531638475055 28.264446446171736 0 0 0
88 1 2 0 11.715039329882933 33.241849364715605 28.955356252005288 0 0 0
26 1 2 0 13.070699611759007 31.85794361539089 27.2237603337529 0 0 0
10 1 2 0 12.202004871914498 32.8477023644457 25.70046833153334 0 0 0
11 1 3 -1 12.776492404780605 32.124796923344284 25.58441950252183 0 0 0
87 1 4 1 12.633605544513891 33.401233652353525 28.687441193910445 0 0 0
12 1 2 0 12.385364387771677 31.425106896445158 25.069736357266443 0 0 0
6 1 2 0 12.535762742235102 32.27384550298301 24.32583614054335 0 0 0
20 1 2 0 14.758614343813518 31.636709411059897 24.707477599754636 0 0 0
69 1 2 0 14.305059545219978 33.90395915428674 25.51504935828715 0 0 0
5 1 2 0 13.484383869448537 32.48144613293864 24.32988589960644 0 0 0
8 1 2 0 12.19549791739516 33.57306342879885 24.271825409215815 0 0 0
7 1 2 0 11.86232430442456 32.799783966894594 24.735566785091176 0 0 0
9 1 2 0 12.7079397443654 33.42684679074993 25.099092287387194 0 0 0
1 1 1 0 12.846282800767707 29.89847821762759 24.202447717363576 0 0 0
65 1 2 0 12.948239213318358 34.56385210948017 26.643917016980666 0 0 0
67 1 4 1 14.005052024598802 33.745772499803586 27.17252125014218 0 0 0
32 1 3 -1 10.868379605364 31.582186567830714 28.393613351780804 0 0 0
28 1 2 0 13.0974218374124 32.69010050019511 28.03664092067161 0 0 0
29 1 3 -1 12.176665621161396 32.409256597567136 27.992685236227317 0 0 0
30 1 3 -1 12.161192323256412 31.408103186944953 28.293658777825208 0 0 0

Velocities

98 1.8486547663240784 -0.4173640986287388 -2.0004085689789908
97 -1.0471703598299988 -0.25157255844470494 -0.09316520912687448
76 0.8270348240477575 -0.33974184973797655 0.9413202884070222
95 -0.41708356824527765 0.8380942209767149 0.4390164147541652
96 1.3422207738663452 0.21297852796691732 -0.6863614955947979
77 0.3408272892867621 1.4521752891082544 -0.6883831758581421
75 1.3791213850432038 -0.9129336130048586 0.5731648924124024
74 -2.3154429006158597 0.259367413111235 0.4277455357645399
81 1.0343195522189184 0.26593259905055894 1.285636523034903
78 -0.03206314765861739 -1.2713348339579789 -1.9749609675083275
79 -0.5109249657024576 1.6549244114353687 0.3553282730326502
80 -0.2453684192381981 -0.03365179228458881 1.098871227666574
73 0.7409340248281611 -0.7664038098540218 0.8424198689475
72 -0.40133881407034355 -1.451171659368573 -0.4130157083845511
83 0.9376436925221487 0.9132519376585199 0.158307185865248
66 -1.6619919156945921 -0.781869571621591 -0.8330652594237912
18 -1.8420907657774492 0.976225692426457 -2.0129589306907025
100 1.8890546282366858 -1.0819458212208746 -1.409244177957711
99 0.6687504524685458 1.3219333620019553 0.9248090546363602
55 -0.10457762426909169 0.3479957429687421 2.001371420120858
53 -0.6861758275511217 2.4219334728239246 0.2122310267248278
52 0.2945241146573549 1.006878955559193 0.17443139705419758
54 0.39170838033949623 -0.7481914567295087 0.4117825573541452
41 0.9332043271890911 0.2527670708344572 -0.9176722834506563
38 -0.4647614313582272 0.1426051042483703 0.418059704568258
39 1.1824949936743143 1.0835583662617458 0.9737353593169865
42 -1.6336249916664973 -0.8215493248252391 0.9694321174109936
51 0.6094590583829613 -0.6466253006638433 1.1588770485179223
48 0.24829300211128782 0.17691749192235515 2.174295504287026
50 -0.06770382104144897 1.2930012417355712 -0.5548169077633697
49 0.35140445040335994 -2.388236998197872 1.539453564745098
34 0.025845248179811185 0.32613126864284403 0.4895725384456219
37 -0.7006735827526687 1.3768662528178328 -0.3587615265826968
36 -0.6668166432756427 -0.28658023351857526 1.2038128040681075
35 -0.26814295336752686 0.31107210095410986 -1.3951153883923342
40 -0.14429142416004376 -1.553015777409614 -0.1909970692288102
47 0.17216310681039249 -1.2466289324455129 0.21219966091475728
45 2.127423884419882 1.1967219378536293 -0.735087419585652
46 0.36126267795741857 1.286652649583991 -0.17345259257899104
43 -0.8820974613751217 -0.8835698548498601 -1.0436145992585673
44 -0.21733674219983817 0.6780261331593781 -1.6892826178769735
57 0.640598561530923 -1.2418051205276175 -0.3399878554745862
56 -1.1623698150254649 1.0202926628594275 -0.8969760134356168
59 1.7693149924069371 -0.2718712538466278 -0.5276373873521237
58 0.2502690131300762 -0.14799682561696725 -0.9260416135547169
60 0.3368901206490122 -0.08272631201121627 0.6754727688469374
94 -1.1083891736745222 -0.08275191230653163 -0.15470338498953543
33 0.2047993112518127 -2.054910601569813 -0.11028198399543146
62 1.165638287438663 -1.2708263757703149 -0.3164406696774136
92 -1.245978982259094 -0.9132819172466687 -1.0316925598078037
93 -1.6458773073022044 -0.9377376219592586 -0.42478970377980596
91 0.6834334635524053 0.48164197376925677 0.48501478923802044
90 0.34760590189650076 -0.6073592628038369 0.4263130419150832
89 0.11930056163066713 -0.07769069467420567 -1.0149933412325605
68 -0.06904967988653445 0.4114020546133963 -1.8952423492946469
82 0.3602216493471774 -0.8408662678182721 1.4139182412860105
17 -0.9072823534211317 -0.0419272085981422 -0.9698809257052562
14 -0.5223732935636013 1.5641316232689433 -0.22545327051375968
13 -0.45014123471637024 -0.9416199906263588 -0.9717868597530178
15 1.1621273284000146 -0.5068239932613006 1.8055482543102914
16 -1.124430516477585 -0.467608324596356 -0.8841110928924704
21 1.7710804348831644 0.7163945455121533 -0.03183601000586491
19 1.170275711535849 1.847623987717697 1.6239557087177052
61 1.3715820151372509 -0.7710485376592537 -0.4852892272141264
2 -0.7735386015135216 0.15115467286473208 -0.484078223173944
71 -0.5356094503872316 -0.39415843658874417 -0.24101080144010156
70 0.2526254240562902 -1.4280710027951733 -0.9021173426304212
4 -1.1617231774661794 0.4641014947605595 0.910128949924994
3 -0.5806079780550922 0.6184438078354833 -0.15358088540353118
31 -1.280951740137864 -0.7270453755804223 -0.14302253252710503
64 -1.1084530758746896 -0.524735378599047 1.0021928495605927
63 -0.7951644490330996 -0.9977884406171637 0.2595639935117907
27 -0.8003079533902189 -0.619644140501254 0.47747181170412156
25 -0.7414757238769106 -0.29343428788195935 -0.5277319610871223
86 0.37838090528022844 0.924785554264713 -1.3216559762676905
85 0.1573117293797734 0.912047160055296 -0.404372634679295
22 0.6965207164822036 -1.2369396953968985 0.32903203507528594
23 0.0971631886639785 1.8576269583075986 0.5194753364742483
24 -1.560591587283161 0.7935952639659668 -2.3321813158436218
84 0.7272970254645347 1.3680706263528168 0.9155717080401343
88 1.7493537289775867 -0.13920602967641524 -0.12942295990327354
26 0.15684891392313538 -0.9924144587766972 0.37964614179775164
10 -1.2716867460019716 0.9441375113750536 1.2451081335277465
11 -0.9944453355682993 -0.724211278783633 -0.14932180745917767
87 0.055435265174566255 1.339108184006953 -0.7203076334947185
12 -0.733211398045742 -1.0530224677067046 1.834459980457986
6 -1.8157560875691763 1.1131114072297965 -0.8317765797999398
20 0.9042562215687887 2.254909339152542 0.08417792826264968
69 -0.05826000424072306 -0.237111933852577 0.8376691027176555
5 -0.026191689532377535 -1.4439901950614518 0.010513415023710013
8 0.7530154038452435 -0.904519388782282 -0.9909412022315898
7 0.14734991599198924 0.21827785297835178 -0.2759873083810151
9 0.9322662945319099 -0.2591442115825182 0.1199360367189686
1 0.9825039709776906 1.4760447527449354 -0.8008163415092199
65 2.1810325535499313 1.32115700928848 1.5331568357699346
67 -1.1924049849170908 -0.7557647271771452 0.9292064496998983
32 -0.6114790466326608 -1.1780649411230395 0.6928147697223314
28 -0.911001197402373 0.3248957730170272 0.5019051610082926
29 0.44313866438715555 0.17377017046840726 -0.13207396984322586
30 -0.17555196490852334 -1.0422295313719154 0.9197802112333657

Bonds

1 1 98 99
2 1 97 98
3 1 76 77
4 1 95 96
5 1 96 97
6 1 77 78
7 1 75 76
8 1 74 75
9 1 81 82
10 1 78 79
11 1 79 80
12 1 80 81
13 1 73 74
14 1 72 73
15 1 83 84
16 1 66 67
17 1 18 19
18 1 99 100
19 1 55 56
20 1 53 54
21 1 52 53
22 1 54 55
23 1 41 42
24 1 38 39
25 1 39 40
26 1 42 43
27 1 51 52
28 1 48 49
29 1 50 51
30 1 49 50
31 1 34 35
32 1 37 38
33 1 36 37
34 1 35 36
35 1 40 41
36 1 47 48
37 1 45 46
38 1 46 47
39 1 43 44
40 1 44 45
41 1 57 58
42 1 56 57
43 1 59 60
44 1 58 59
45 1 60 61
46 1 94 95
47 1 33 34
48 1 62 63
49 1 92 93
50 1 93 94
51 1 91 92
52 1 90 91
53 1 89 90
54 1 68 69
55 1 82 83
56 1 17 18
57 1 14 15
58 1 13 14
59 1 15 16
60 1 16 17
61 1 21 22
62 1 19 20
63 1 61 62
64 1 2 3
65 1 71 72
66 1 70 71
67 1 4 5
68 1 3 4
69 1 31 32
70 1 64 65
71 1 63 64
72 1 27 28
73 1 25 26
74 1 86 87
75 1 85 86
76 1 22 23
77 1 23 24
78 1 24 25
79 1 84 85
80 1 88 89
81 1 26 27
82 1 10 11
83 1 11 12
84 1 87 88
85 1 12 13
86 1 6 7
87 1 20 21
88 1 69 70
89 1 5 6
90 1 8 9
91 1 7 8
92 1 9 10
93 1 1 2
94 1 65 66
95 1 67 68
96 1 32 33
97 1 28 29
98 1 29 30
99 1 30 31
