LAMMPS data file via write_data, version 23 Jun 2022, timestep = 1000000

100 atoms
4 atom types
99 bonds
1 bond types

0 35 xlo xhi
0 35 ylo yhi
0 35 zlo zhi

Masses

1 1
2 1
3 1
4 1

Atoms # full

40 1 3 -1 10.832751609770213 34.72987643746201 26.74727853086101 0 0 0
41 1 2 0 11.24946637761996 34.13240236667812 27.303648369755233 0 0 0
10 1 3 -1 13.790774724568895 34.3687212906755 25.807908505169323 0 0 0
43 1 3 -1 11.904799768960618 34.86646051394364 27.976982808674666 0 0 0
48 1 4 1 10.583466384808387 0.001342600991743421 28.56824606996998 0 1 0
49 1 4 1 10.406878576662011 34.03941387118756 28.652116379494274 0 0 0
53 1 4 1 9.5427151314953 33.211749172823126 26.949672849497624 0 0 0
25 1 4 1 8.42345948285682 31.780834214311923 24.018112981124567 0 0 0
29 1 4 1 10.09746820891617 31.78906502321072 25.470532540731085 0 0 0
26 1 2 0 8.345100414787114 32.08102611193943 24.928162401550207 0 0 0
27 1 1 0 8.378792071502847 31.818038446789135 25.809325980181992 0 0 0
23 1 4 1 9.39751109792383 32.550188161139985 23.47612398481409 0 0 0
28 1 2 0 9.220250640936708 31.474450215826124 25.445931506939043 0 0 0
24 1 3 -1 9.135079748924381 31.67917493192883 23.38524379120066 0 0 0
30 1 2 0 10.739241051133154 32.46829139930891 25.75821184022539 0 0 0
18 1 3 -1 10.684500807430439 32.61921823377254 24.757320812436816 0 0 0
19 1 3 -1 10.71741416226601 33.57234792182278 24.992206981921033 0 0 0
22 1 2 0 9.158739584452995 32.95182694420674 24.290417052943305 0 0 0
21 1 2 0 9.200348277831601 33.85630917661294 23.861467193076113 0 0 0
17 1 2 0 9.869244747356671 32.853255277995 25.21532729218283 0 0 0
20 1 1 0 10.028749103932238 33.6195444799324 24.244627679910753 0 0 0
16 1 2 0 9.127667326432233 33.452005196859616 25.251548876006556 0 0 0
57 1 4 1 10.529639686738292 31.89445853591832 27.52008746885148 0 0 0
56 1 3 -1 9.746825222905978 31.50425622059122 27.215898279354864 0 0 0
55 1 2 0 9.059898009617239 32.078438319648754 26.956741356096995 0 0 0
51 1 2 0 10.18665327627196 32.88652937408461 27.875654648754008 0 0 0
50 1 2 0 10.963499215048676 33.358297084475666 28.17849370832534 0 0 0
52 1 3 -1 10.163428420377032 33.73856461599278 27.321852013452656 0 0 0
54 1 1 0 9.602046300644853 32.58456251486271 26.19802755563997 0 0 0
80 1 1 0 12.137530218512927 30.848168749173173 26.382118529463675 0 0 0
15 1 1 0 9.965527831942145 33.69931646564091 25.77666645830564 0 0 0
81 1 1 0 12.172132370993895 29.933939455984152 26.171886428689707 0 0 0
34 1 4 1 11.896934193945963 32.48553942730905 25.08968226499539 0 0 0
33 1 2 0 12.73390677618256 32.07408174769125 25.049042561096435 0 0 0
31 1 2 0 11.103104611449199 31.74226309057454 25.284139365556126 0 0 0
14 1 2 0 10.462676625564292 33.23577472660428 26.51080809533727 0 0 0
47 1 3 -1 10.999461009892448 34.82128556669974 29.395921848456553 0 0 0
38 1 2 0 11.729197749910954 33.62339146941765 25.45745646234473 0 0 0
42 1 2 0 11.875514826522696 34.73587602973346 26.947554418934317 0 0 0
46 1 2 0 11.452817171569528 34.093722192238445 29.002308492882566 0 0 0
13 1 2 0 11.383854715201126 33.453093373578625 26.436405683526004 0 0 0
82 1 4 1 12.2455752066023 30.326564687597642 25.282216419502525 0 0 0
39 1 4 1 11.305457102539 34.414782501728126 25.771050085773204 0 0 0
4 1 3 -1 15.30844975296596 34.23415189768194 27.05005099258192 0 0 0
2 1 2 0 16.408593229916374 33.349831006757434 26.96693760427032 0 0 0
3 1 2 0 15.685034955720718 33.69498159632329 26.331499793109536 0 0 0
5 1 4 1 14.575120094248296 34.02060199435608 26.443547087760212 0 0 0
58 1 1 0 11.275302955702115 32.34796195996195 27.12858992791529 0 0 0
79 1 2 0 12.919127882983142 30.966959030266672 25.839281851190613 0 0 0
32 1 3 -1 12.059585326962448 31.397798287647387 25.272201654071935 0 0 0
35 1 1 0 11.97638936881305 32.24034534523794 25.99957492309678 0 0 0
6 1 2 0 14.35614074486483 33.159759658981685 26.887711714011306 0 0 0
78 1 2 0 13.399951338988869 31.774823665995196 26.10741006260797 0 0 0
60 1 1 0 12.253611284744848 33.77870456618727 27.91309727877656 0 0 0
59 1 4 1 11.89774857635808 32.9867216454903 27.506807311751647 0 0 0
37 1 2 0 12.49959106163129 33.13786703618782 25.709020760326265 0 0 0
77 1 2 0 12.788927523712314 31.784074150273906 26.838195851744302 0 0 0
44 1 1 0 12.660115739396552 0.12236035208689237 28.530803911588606 0 1 0
45 1 1 0 12.343861821566719 34.27581942109765 28.805034145907392 0 0 0
68 1 4 1 12.782757518300464 32.40526824206749 30.057416192298344 0 0 0
36 1 1 0 12.607318654044052 32.73000823917253 26.596557122547573 0 0 0
61 1 1 0 13.014684703640155 33.4180011259605 27.453959455501728 0 0 0
63 1 1 0 14.031457926877751 34.00825258666817 27.517475271247573 0 0 0
76 1 3 -1 12.201907386458007 31.832594130084185 27.55704204504595 0 0 0
11 1 2 0 13.022946034235941 34.03865951334287 26.244467144479163 0 0 0
71 1 4 1 13.486672547230235 31.341023435464415 29.75400779269285 0 0 0
72 1 4 1 12.421994734494406 31.44723347571017 29.686915402554796 0 0 0
83 1 4 1 12.550198952411918 30.02879568404185 24.44466149081874 0 0 0
70 1 3 -1 13.06862226051135 31.32431971523383 30.612777554932716 0 0 0
75 1 1 0 12.877891534154825 32.452686758706186 27.63232301389459 0 0 0
73 1 1 0 12.41679475743543 32.08026231986296 28.894005361132233 0 0 0
99 1 3 -1 14.752081642588223 30.208689665907126 24.36772498083767 0 0 0
100 1 4 1 15.2983628178259 30.959467372461773 24.637921310868958 0 0 0
74 1 1 0 12.77490702190549 32.95040918661711 28.45629011916178 0 0 0
9 1 1 0 14.239275012239379 33.561096248529566 25.549235394889163 0 0 0
85 1 4 1 13.711441715869057 30.984536335008617 25.079412776296014 0 0 0
86 1 1 0 13.694919577003747 31.45910830148673 24.274491263566127 0 0 0
8 1 1 0 13.62474643394813 33.227388925329535 26.247245001501152 0 0 0
7 1 1 0 13.684030936057704 32.460876233881 26.828098417349885 0 0 0
98 1 3 -1 14.603623430774565 30.981935344070934 23.707837880449873 0 0 0
12 1 1 0 12.21770152331434 33.70103082408175 26.636937041080625 0 0 0
62 1 2 0 13.149671384022309 34.35518721745426 27.363276199097804 0 0 0
96 1 1 0 14.295053593861628 32.59274555585253 24.18994004953338 0 0 0
97 1 3 -1 14.721373124833836 31.930961571424536 23.757671469772145 0 0 0
92 1 1 0 13.139549267143115 33.21346246716612 24.93149506220448 0 0 0
93 1 2 0 13.876434250133276 32.639624304767004 25.224382918261256 0 0 0
91 1 3 -1 12.646441092968942 33.58769412234338 24.21482793913498 0 0 0
95 1 2 0 14.57159656598138 31.993833029141534 24.835632560838615 0 0 0
94 1 2 0 14.525021486616394 32.283661045973844 25.81728677755976 0 0 0
88 1 1 0 13.508251524501079 33.00491214324769 23.60491131796322 0 0 0
84 1 1 0 13.301679550774708 30.118251203712045 25.045411912210174 0 0 0
87 1 1 0 13.189373321689175 32.25441684258635 24.17361975871073 0 0 0
64 1 4 1 14.307733564652457 33.65208687269837 28.386915251523703 0 0 0
90 1 3 -1 13.33679801536562 34.287048473172156 24.13247531878359 0 0 0
89 1 4 1 13.725755582858115 33.89761003962434 23.35912264133285 0 0 0
65 1 1 0 14.362748345347326 34.1401394278758 29.19321171773658 0 0 0
69 1 1 0 13.290907172349643 32.281557630700036 30.836381190299925 0 0 0
1 1 3 -1 17.256990403741987 33.735037718785826 26.531038759918207 0 0 0
67 1 3 -1 13.622620994919846 32.49979875440853 29.674668974285243 0 0 0
66 1 2 0 14.148870820724746 33.1670475895799 29.346628324470235 0 0 0

Velocities

40 -0.5807529852608098 1.8482969053377534 0.5959171239147033
41 -1.3776882963855346 -0.7580851567944756 -1.3373712451492583
10 1.4353225883463279 0.9254372530853952 -0.27246593131494046
43 -0.23824915495792598 -0.9792937632613922 0.3856633506482588
48 1.5880355380918143 -0.4988670385549407 0.28913752811790233
49 -0.8808261208999297 0.7035919583083591 -0.2700366740986237
53 -0.9220907481773983 -0.6782406746003647 -0.30972340394772996
25 -0.5488419752284831 0.4556346130989782 0.4068757089712195
29 0.9409920112435847 -2.222635243031118 0.845136928725486
26 0.21320541929547637 -0.531344906942517 -0.8223470407607335
27 -0.5554031924314587 0.10374714649605984 -0.1306640943054408
23 0.7276215120598575 -1.046688928820549 -0.5816740191582246
28 -0.9684111810050354 -0.7951203298926743 0.4829926341792142
24 1.8349046652706584 0.8986044868348846 0.8705732889655802
30 0.5388439574976854 0.4671391066540803 -0.7973757564233941
18 -1.3658687700635297 -0.43773682070934344 -0.4642060774779373
19 0.45295529914428434 0.1291337020545494 -0.305304138549793
22 -0.2286608439489547 1.237865135106516 0.6434935457421255
21 0.34412830842961273 1.3413282713584291 0.6255821791765395
17 -0.39858982962845313 -0.5568155159083289 -0.05979144959366418
20 -0.910757648691057 1.3462814645706322 -0.5792756751804179
16 0.9215734222951225 -0.13001716814335842 -1.3613515188957845
57 0.1592703216434258 0.10800908807427312 -0.24039131138476702
56 0.9138560197222841 -0.2527750816248246 1.0035182000982195
55 -0.3516966276578245 -1.6637487594799303 0.7936072645748519
51 -0.005462284970938082 -0.1642681743666979 -0.007628834624586725
50 1.520437647168718 -0.07468514796770484 -1.8168827607959492
52 2.063646957216408 -0.6526251102932626 0.4619944328133209
54 2.6006181193020996 0.4666705795368533 -0.3403700448676539
80 -1.858367420425705 0.9383943990127295 -0.3518753634259806
15 1.162624817108866 0.2810826319711249 0.32674858870291656
81 -0.04013069168890852 0.3252599697828102 -1.1727493142264944
34 -0.9996005626875902 -0.4336661055097212 1.0553680482182983
33 0.09754738166641658 -0.7185114691022254 -1.6816379975914661
31 0.6855180475214556 -0.05594071515192321 0.20333201824713357
14 -0.6563345795981013 -0.1491603081298351 -0.17719013876131484
47 0.34430945688831116 0.08303339500951903 -0.9503206633226805
38 0.10621173437180596 1.1491824134189637 0.3454628402735571
42 0.6278102945835354 0.845666158726956 0.5516255211659498
46 -0.33612325431610657 1.4721428683027988 -0.9347590737838212
13 0.6810974105701637 0.11629789808341555 0.7991158821599094
82 -0.6624213476015114 -1.1736398111473565 1.107534977249984
39 0.5486428684413281 0.2223265805339987 0.653540578189464
4 -1.0662152255075756 -0.18873747613439482 0.3369264653785593
2 -0.30953448701022285 0.5368393510104498 -1.5872432604795175
3 -0.7807046245228225 0.5132532792574568 -0.7983534718390907
5 -1.057020572329293 -0.10822318569623872 2.6115580510631924
58 0.562253310705547 1.0048977219963753 -0.4518463453843981
79 -1.237107941186136 0.3971046624594526 1.0198835293218376
32 -0.0789793292954566 0.10415487331146547 -0.10080940708905006
35 0.9662375940603292 0.7314812006094642 -0.09186759945621523
6 0.5158291015413679 0.9923582226847704 0.3303713368631144
78 -0.057315916687209006 1.1908802879672156 0.9753083810269121
60 0.653887113817867 -0.8753643034547925 1.6666571962374719
59 -0.7080793999673346 1.3925334170903083 1.2009995887988214
37 1.3803909096543152 0.18758674748874565 1.3111301923371812
77 2.11755598680653 -1.3915459052603971 0.7195732366547211
44 -0.8256688276741053 0.669973054297813 -0.6817891983527545
45 -0.13696073502277603 -2.513463498011892 -1.2412987222931633
68 0.6218457547644702 0.5274898656386952 0.60534802382971
36 0.632685262996316 1.0686718869770122 0.10600150810176365
61 0.8218749216900523 1.2425639355152858 -0.9107957652731393
63 -0.8816698588793881 -1.0393528669551455 -0.6665495517042224
76 -0.8144924582365146 0.15350750370348423 -0.7937077888034484
11 0.46212852338572924 -1.8437937107377063 1.3290655054610683
71 1.4444077050892543 -1.159488960638197 -1.1096410492378477
72 0.7893011521114741 0.5410517596626616 2.0005752186217376
83 -0.4178713935037199 -0.11235957150424043 0.6967620082171944
70 -1.4483693828953612 -1.6161464110205497 -0.2338720392927626
75 0.7195689209119356 -0.38055778741862045 0.6177652376279241
73 -1.3182166155583903 -0.43573387991632506 -0.7334753423766047
99 -1.352084536988763 0.046647316753299244 -0.9090077169693255
100 0.00867817139612554 0.22634140595606575 -0.24062294100657683
74 -1.1181989598919566 0.8066721420338441 -1.3953298478357197
9 -0.9364816825018838 1.4082170925367048 0.13300775586178754
85 0.760600306574041 0.879419553481921 0.27734954692136365
86 -0.25061637289202826 -0.35296638105174044 -0.11416767867249389
8 -1.2938895117595108 -0.23657632384321353 1.1258257735077684
7 0.6379512845649896 0.4536056740072966 -1.237363699773879
98 0.7568883799400526 -1.374551956642023 -0.0899402386203021
12 -0.4720010090056863 -0.17340089480466112 1.0305207623377108
62 -1.536402054614516 0.7256335358443826 -0.4088145927002074
96 -0.24954062396193816 -0.8163327716467441 0.835701337701678
97 1.0593139101209346 0.0985021228496301 -0.34759264157882214
92 -0.15053586862165536 -0.8279858844389156 -0.4809453207727485
93 -0.23300433248499078 -1.2868340907032885 -0.9975366406222839
91 -2.392613369438014 0.01826287122534005 0.9902914391945545
95 0.7515270363079534 -0.6004147063872219 1.0984829700850987
94 -2.674062405409328 -0.6550933747489958 0.5810883523837047
88 1.1367738768195916 0.5007181866782129 2.211236040998885
84 1.651103448610543 -0.310995576160024 -1.8081399699232938
87 -0.5234415561110793 -1.6118693031869584 -0.6918975770901249
64 -1.0091437535953904 -1.9104400506909602 -0.4200265499239737
90 0.47203654576771054 1.1133063991822731 -0.10866458693308584
89 -0.15228182607313154 0.4397049035089365 -0.8701964439059199
65 -0.9858005286988285 2.1859494129910764 -0.5028632585260283
69 0.44576811177132464 1.9628399768658376 -0.44023053200519907
1 0.9543779299847044 -0.46629742894509824 -0.29467840410056884
67 -0.13001133435657328 0.43752917381833006 0.05113141970426938
66 -0.34756504696556456 -1.760431033331999 -0.5851208081892424

Bonds

1 1 40 41
2 1 41 42
3 1 10 11
4 1 43 44
5 1 48 49
6 1 49 50
7 1 53 54
8 1 25 26
9 1 29 30
10 1 26 27
11 1 27 28
12 1 23 24
13 1 28 29
14 1 24 25
15 1 30 31
16 1 18 19
17 1 19 20
18 1 22 23
19 1 21 22
20 1 17 18
21 1 20 21
22 1 16 17
23 1 57 58
24 1 56 57
25 1 55 56
26 1 51 52
27 1 50 51
28 1 52 53
29 1 54 55
30 1 80 81
31 1 15 16
32 1 81 82
33 1 34 35
34 1 33 34
35 1 31 32
36 1 14 15
37 1 47 48
38 1 38 39
39 1 42 43
40 1 46 47
41 1 13 14
42 1 82 83
43 1 39 40
44 1 4 5
45 1 2 3
46 1 3 4
47 1 5 6
48 1 58 59
49 1 79 80
50 1 32 33
51 1 35 36
52 1 6 7
53 1 78 79
54 1 60 61
55 1 59 60
56 1 37 38
57 1 77 78
58 1 44 45
59 1 45 46
60 1 68 69
61 1 36 37
62 1 61 62
63 1 63 64
64 1 76 77
65 1 11 12
66 1 71 72
67 1 72 73
68 1 83 84
69 1 70 71
70 1 75 76
71 1 73 74
72 1 99 100
73 1 74 75
74 1 9 10
75 1 85 86
76 1 86 87
77 1 8 9
78 1 7 8
79 1 98 99
80 1 12 13
81 1 62 63
82 1 96 97
83 1 97 98
84 1 92 93
85 1 93 94
86 1 91 92
87 1 95 96
88 1 94 95
89 1 88 89
90 1 84 85
91 1 87 88
92 1 64 65
93 1 90 91
94 1 89 90
95 1 65 66
96 1 69 70
97 1 1 2
98 1 67 68
99 1 66 67
