LAMMPS (23 Jun 2022 - Update 1)
OMP_NUM_THREADS environment is not set. Defaulting to 1 thread. (src/comm.cpp:98)
  using 1 OpenMP thread(s) per MPI task


variable        runtime equal 1000000
variable		subsample_rate equal 1000

variable		outputfile_created string '3_created.data'
variable		outputfile_relaxed string '5_relaxed.data'
variable		outputfile_selfasb string '6_a_self_assemble.lammpstrj'
variable		outputfile_trajlin string '6_b_trajlin.data'
variable		outputfile_assembled string '7_assembled.data'

units           lj
atom_style      full
dimension       3
boundary        p p p
timestep        0.005

read_data       ${outputfile_created}
read_data       3_created.data
Reading data file ...
  orthogonal box = (0 0 0) to (35 35 35)
  1 by 1 by 1 MPI processor grid
  reading atoms ...
  100 atoms
  reading velocities ...
  100 velocities
  scanning bonds ...
  1 = max bonds/atom
  reading bonds ...
  99 bonds
Finding 1-2 1-3 1-4 neighbors ...
  special bond factors lj:    0        0        0       
  special bond factors coul:  0        0        0       
     2 = max # of 1-2 neighbors
     2 = max # of 1-3 neighbors
     4 = max # of 1-4 neighbors
     6 = max # of special neighbors
  special bonds CPU = 0.000 seconds
  read_data CPU = 0.006 seconds

bond_style      fene
bond_coeff      * 30.0 1.5 1.0 1.0
special_bonds   fene
Finding 1-2 1-3 1-4 neighbors ...
  special bond factors lj:    0        1        1       
  special bond factors coul:  0        1        1       
     2 = max # of 1-2 neighbors
     6 = max # of special neighbors
  special bonds CPU = 0.000 seconds

variable        Temp equal 1.0
variable        velSeed equal 926458

velocity        all create ${Temp} ${velSeed}
velocity        all create 1 ${velSeed}
velocity        all create 1 926458

### Output
thermo_style    custom step temp density press etotal pe ke epair spcpu
thermo          1000

###########################################################################
# Soft relaxation (to remove overlaps of particles)
######################################################################

pair_style      soft 1.0
pair_coeff      * * 0.0
variable        prefactor equal ramp(0,300)
fix             rampSoft all adapt 1 pair soft a * * v_prefactor

minimize        0.0 1.0e-8 1000 100000
WARNING: Using 'neigh_modify every 1 delay 0 check yes' setting during minimization (src/min.cpp:187)
Generated 0 of 6 mixed pair_coeff terms from geometric mixing rule
Neighbor list info ...
  update every 1 steps, delay 0 steps, check yes
  max neighbors/atom: 2000, page size: 100000
  master list distance cutoff = 1.3
  ghost atom cutoff = 1.3
  binsize = 0.65, bins = 54 54 54
  1 neighbor lists, perpetual/occasional/extra = 1 0 0
  (1) pair soft, perpetual
      attributes: half, newton on
      pair build: half/bin/newton
      stencil: half/bin/3d
      bin: standard
WARNING: Communication cutoff 1.3 is shorter than a bond length based estimate of 1.7550000000000001. This may lead to errors. (src/comm.cpp:727)
Per MPI rank memory allocation (min/avg/max) = 8.346 | 8.346 | 8.346 Mbytes
   Step          Temp         Density         Press          TotEng         PotEng         KinEng         E_pair         S/CPU     
         0   1              0.0023323615  -0.0039617958   21.524174      20.039174      1.485          0              0            
       362   1              0.0023323615   0.0023090379   21.485548      20.000548      1.485          0              65558.463    
Loop time of 0.00552603 on 1 procs for 362 steps with 100 atoms

93.6% CPU use with 1 MPI tasks x 1 OpenMP threads

Minimization stats:
  Stopping criterion = force tolerance
  Energy initial, next-to-last, final = 
      20.0391741078675   20.0005480767337   20.0005480767337
  Force two-norm initial, final = 11.878422 7.9509778e-09
  Force max component initial, final = 6.6117807 1.3572772e-09
  Final line search alpha, max atom move = 1 1.3572772e-09
  Iterations, force evaluations = 362 738

MPI task timing breakdown:
Section |  min time  |  avg time  |  max time  |%varavg| %total
---------------------------------------------------------------
Pair    | 0.00021678 | 0.00021678 | 0.00021678 |   0.0 |  3.92
Bond    | 0.0023467  | 0.0023467  | 0.0023467  |   0.0 | 42.47
Neigh   | 0.0017925  | 0.0017925  | 0.0017925  |   0.0 | 32.44
Comm    | 0.00018801 | 0.00018801 | 0.00018801 |   0.0 |  3.40
Output  | 0          | 0          | 0          |   0.0 |  0.00
Modify  | 0          | 0          | 0          |   0.0 |  0.00
Other   |            | 0.0009821  |            |       | 17.77

Nlocal:            100 ave         100 max         100 min
Histogram: 1 0 0 0 0 0 0 0 0 0
Nghost:             20 ave          20 max          20 min
Histogram: 1 0 0 0 0 0 0 0 0 0
Neighs:              0 ave           0 max           0 min
Histogram: 1 0 0 0 0 0 0 0 0 0

Total # of neighbors = 0
Ave neighs/atom = 0
Ave special neighs/atom = 1.98
Neighbor list builds = 17
Dangerous builds = 0

fix             nvtSoft all nvt temp ${Temp} ${Temp} 0.5
fix             nvtSoft all nvt temp 1 ${Temp} 0.5
fix             nvtSoft all nvt temp 1 1 0.5
run             100000
Generated 0 of 6 mixed pair_coeff terms from geometric mixing rule
WARNING: Communication cutoff 1.3 is shorter than a bond length based estimate of 1.7550000000000001. This may lead to errors. (src/comm.cpp:727)
Per MPI rank memory allocation (min/avg/max) = 7.221 | 7.221 | 7.221 Mbytes
   Step          Temp         Density         Press          TotEng         PotEng         KinEng         E_pair         S/CPU     
       362   1              0.0023323615   0.0023090379   21.485548      20.000548      1.485          0              0            
      1000   0.90989032     0.0023323615  -0.0021940042   21.776974      20.425787      1.3511871      0.00036425437  77951.274    
      2000   0.86546688     0.0023323615   0.0034714157   21.677128      20.39191       1.2852183      0.0025814786   73817.234    
      3000   0.98199538     0.0023323615   0.0028144228   21.866132      20.407869      1.4582631      0.0011756043   74177.048    
      4000   1.004495       0.0023323615  -0.0014058211   21.945624      20.453949      1.4916751      0.011986179    74123.501    
      5000   1.1222705      0.0023323615   0.0044495116   21.986385      20.319813      1.6665718      0.0050317639   74639.332    
      6000   1.0538243      0.0023323615   0.0023957538   21.985713      20.420784      1.564929       0.012100514    75538.714    
      7000   1.0210598      0.0023323615  -0.00038820026  21.904665      20.388391      1.5162738      0              76830.597    
      8000   0.94819751     0.0023323615   0.0024943091   21.747889      20.339816      1.4080733      0              76932.161    
      9000   0.92364502     0.0023323615   0.0020053029   21.724166      20.352554      1.3716129      1.7780894e-05  76097.808    
     10000   0.86685188     0.0023323615   0.00078277366  21.644879      20.357604      1.287275       0.0098636418   76367.556    
     11000   1.0057103      0.0023323615   0.00010113276  21.8558        20.362321      1.4934798      0.020705341    75999.889    
     12000   0.97901664     0.0023323615  -0.0026996968   21.871206      20.417366      1.4538397      0.0052928539   75857.8      
     13000   0.97718436     0.0023323615  -6.1641422e-06  21.963706      20.512587      1.4511188      0.025022446    75619.296    
     14000   1.0530014      0.0023323615  -0.0009993112   21.947994      20.384287      1.5637071      0.0020860456   74913.207    
     15000   0.99094527     0.0023323615   0.0011068478   21.895146      20.423592      1.4715537      0.0015091113   76108.372    
     16000   0.91285091     0.0023323615  -0.00025424173  21.87524       20.519657      1.3555836      0.0047853639   75466.583    
     17000   0.82806978     0.0023323615  -0.00054698156  21.701984      20.472301      1.2296836      0              75920.575    
     18000   1.043278       0.0023323615  -6.6143919e-05  22.003299      20.454031      1.5492679      0.0034319132   76750.43     
     19000   1.0879249      0.0023323615  -0.0017804642   21.998985      20.383416      1.6155685      0.015376175    75277.788    
     20000   1.1144506      0.0023323615   0.0025198298   22.190904      20.535944      1.6549592      0              76362.593    
     21000   1.0427751      0.0023323615   0.0011345349   22.099492      20.550971      1.548521       0.00040047813  76292.665    
     22000   1.0586695      0.0023323615   0.0017882747   22.05673       20.484606      1.5721242      0              76101.005    
     23000   1.0058426      0.0023323615  -0.0055245362   21.954628      20.460951      1.4936763      0.0027619031   75370.162    
     24000   0.98273442     0.0023323615   0.0015147357   21.862067      20.402707      1.4593606      0              75692.182    
     25000   0.95835343     0.0023323615   0.0017808774   21.937761      20.514606      1.4231548      0.00020839942  75526.659    
     26000   0.93993778     0.0023323615  -0.0021777292   21.884849      20.489042      1.3958076      0.0088889834   75606.003    
     27000   0.9308188      0.0023323615  -0.00011239942  21.842252      20.459986      1.3822659      0.021612409    75224.858    
     28000   1.0149581      0.0023323615   0.0041996387   21.906846      20.399633      1.5072129      0.0064059022   75941.781    
     29000   0.92841138     0.0023323615  -2.5398808e-05  21.987185      20.608494      1.3786909      0.0046112484   75827.193    
     30000   1.021043       0.0023323615   0.001589158    22.097958      20.581709      1.5162489      0.016799508    73338.747    
     31000   1.0465985      0.0023323615  -0.0021744286   22.037917      20.483718      1.5541987      0.0057879149   75925.601    
     32000   0.98907108     0.0023323615  -0.0015558606   22.044089      20.575318      1.4687705      0.009448173    75713.427    
     33000   1.0918536      0.0023323615  -0.0025643847   22.039275      20.417873      1.6214025      0              74604.568    
     34000   0.99801543     0.0023323615   0.0016279766   21.932339      20.450286      1.4820529      0.017384617    77422.44     
     35000   1.0352271      0.0023323615  -0.0052971711   22.076004      20.538692      1.5373122      0.00010473809  75778.553    
     36000   1.1141579      0.0023323615  -0.00093279925  22.222491      20.567966      1.6545245      0.00033678641  76804.172    
     37000   1.0369415      0.0023323615   0.00013065175  22.217841      20.677983      1.5398581      0.013788831    75965.705    
     38000   1.0515596      0.0023323615   0.0021717558   22.070766      20.5092        1.561566       0.0067894678   76448.8      
     39000   1.0238495      0.0023323615   0.00026414509  22.040141      20.519725      1.5204165      0.00044464649  75694.537    
     40000   1.0749111      0.0023323615  -0.0026849368   22.039327      20.443084      1.596243       0.012651334    73959.94     
     41000   0.99070886     0.0023323615  -0.0030385564   22.03241       20.561207      1.4712027      0.00092855646  77260.151    
     42000   0.95315224     0.0023323615   0.0019788197   21.965263      20.549832      1.4154311      0.020233689    75595.412    
     43000   1.0644183      0.0023323615  -0.0011168725   22.287172      20.706511      1.5806611      0.039694129    75485.473    
     44000   1.0253747      0.0023323615  -0.006676522    22.066233      20.543552      1.5226814      0              68787.689    
     45000   0.94179556     0.0023323615  -0.0047206018   21.970644      20.572077      1.3985664      0.019869988    74732.099    
     46000   1.0083495      0.0023323615  -0.0017646918   21.972114      20.474715      1.497399       0.00026040605  75427.461    
     47000   0.98767959     0.0023323615  -0.00080218158  22.091674      20.62497       1.4667042      0.024266258    75276.655    
     48000   1.1473449      0.0023323615  -0.0025885687   22.080512      20.376705      1.7038072      0.00065962995  75689.713    
     49000   1.0679312      0.0023323615   0.0017688272   21.970482      20.384604      1.5858779      0.014142422    76832.019    
     50000   0.9581935      0.0023323615   0.0014398836   21.955202      20.532284      1.4229173      0.0055011948   76183.134    
     51000   1.0215759      0.0023323615  -0.00093292688  21.934681      20.41764       1.5170402      0              76163.597    
     52000   0.98079591     0.0023323615   0.0040701936   21.977374      20.520892      1.4564819      0.0020862422   76864.618    
     53000   1.0090927      0.0023323615   0.0013324753   22.095438      20.596935      1.4985027      0              76006.37     
     54000   0.97519627     0.0023323615   0.0013260734   22.070151      20.621984      1.4481665      0.026885444    76971.433    
     55000   1.1805087      0.0023323615  -0.001586238    22.424088      20.671033      1.7530554      0.024690954    76649.991    
     56000   0.98387121     0.0023323615   0.0037155145   22.104425      20.643376      1.4610487      0.01435493     76289.871    
     57000   1.0723812      0.0023323615  -0.0037916262   22.122726      20.53024       1.592486       0.013635549    76555.516    
     58000   1.0152349      0.0023323615   0.00021908047  22.082827      20.575203      1.5076238      0.00077375639  76561.629    
     59000   1.1424502      0.0023323615  -0.0052108657   22.30072       20.604182      1.6965385      0.013308184    77378.742    
     60000   1.0359703      0.0023323615  -0.00097887545  22.188218      20.649802      1.538416       0.00011346294  75642.851    
     61000   1.1646839      0.0023323615  -0.002085017    22.239945      20.51039       1.7295556      0.012918477    77949.559    
     62000   1.101836       0.0023323615   0.0010338878   22.171386      20.53516       1.6362265      0.001396566    76686.981    
     63000   0.96616435     0.0023323615   0.00097550571  21.903821      20.469067      1.4347541      0.013027663    77998.472    
     64000   1.0068907      0.0023323615  -0.0020278726   22.061652      20.566419      1.4952327      0.013750276    76388.364    
     65000   0.98723233     0.0023323615   0.0022441476   22.031073      20.565033      1.46604        0.0066686189   77073.542    
     66000   1.0273881      0.0023323615  -0.0003515278   22.183579      20.657908      1.5256713      0              75197.372    
     67000   0.96528212     0.0023323615  -0.00014822656  21.9396        20.506156      1.4334439      0.010365557    77149.618    
     68000   1.069702       0.0023323615   9.4754668e-05  22.081119      20.492611      1.5885075      0.00049153926  74367.777    
     69000   1.1229502      0.0023323615   0.0011504079   22.200329      20.532748      1.6675811      0.0068454249   77046.648    
     70000   1.0062775      0.0023323615  -0.00085311964  22.094021      20.599699      1.4943221      0.013222355    75361.625    
     71000   1.0906935      0.0023323615   0.00015260357  22.145362      20.525682      1.6196798      0.018338513    76097.35     
     72000   1.010401       0.0023323615  -6.0487182e-06  22.154105      20.653659      1.5004455      0.0013793953   74845.011    
     73000   1.1177599      0.0023323615  -0.0034084797   22.254435      20.594562      1.6598735      0.00011231735  77689.097    
     74000   0.9768019      0.0023323615   0.00016143893  22.07312       20.622569      1.4505508      0.0084515956   75912.95     
     75000   1.1360996      0.0023323615   0.002159116    22.161595      20.474487      1.6871079      0.0089909162   76640.638    
     76000   0.97379329     0.0023323615  -0.00068458621  21.988928      20.542845      1.446083       0              75840.851    
     77000   0.94876793     0.0023323615  -0.0016073976   21.923496      20.514575      1.4089204      0.017745108    75979.297    
     78000   0.83947996     0.0023323615  -0.00062768559  21.726727      20.480099      1.2466277      0.0054510099   76422.171    
     79000   1.0090614      0.0023323615  -0.00080262643  22.068192      20.569736      1.4984562      0.00023011166  77215.623    
     80000   1.1217643      0.0023323615  -0.0038177864   22.367902      20.702082      1.66582        0.032902439    76454.189    
     81000   1.0240158      0.0023323615   0.00023547123  22.031597      20.510933      1.5206635      0.0068767308   75947.958    
     82000   1.003236       0.0023323615  -0.0022802982   21.894199      20.404393      1.4898055      0.019136282    75010.601    
     83000   1.0554159      0.0023323615   0.004011718    22.104562      20.537269      1.5672927      0.0080869707   74841.308    
     84000   0.83527346     0.0023323615  -0.0034122221   21.874648      20.634267      1.2403811      0.0030083664   76066.319    
     85000   1.036002       0.0023323615   0.0013573923   21.962923      20.42446       1.5384629      0.015709144    76750.548    
     86000   0.9432002      0.0023323615  -0.0032183248   21.913588      20.512936      1.4006523      0.013730309    76671.723    
     87000   0.95566008     0.0023323615  -0.00049614223  21.91653       20.497375      1.4191552      0.0035862035   75664.52     
     88000   0.93373351     0.0023323615  -0.00097093893  21.870485      20.483891      1.3865943      0.0018212145   75420.964    
     89000   0.9684944      0.0023323615  -0.00047342045  21.973429      20.535215      1.4382142      0.00087524744  75620.331    
     90000   0.98293324     0.0023323615  -0.0032204602   22.050919      20.591263      1.4596559      0.015353933    77041.65     
     91000   1.0832827      0.0023323615   0.0048517083   22.11977       20.511095      1.6086749      0.0052867789   77927.229    
     92000   0.85899662     0.0023323615  -0.0013049519   21.765697      20.490087      1.27561        0.0024124001   76741.931    
     93000   0.96176266     0.0023323615  -4.4223672e-05  21.874222      20.446004      1.4282176      0.0045653365   77587.458    
     94000   0.96019503     0.0023323615   0.00024459347  21.944954      20.519064      1.4258896      3.8053462e-05  76823.856    
     95000   0.94702149     0.0023323615  -0.0033658915   21.86315       20.456823      1.4063269      0              77491.747    
     96000   0.91119348     0.0023323615  -0.0013197298   21.825018      20.471896      1.3531223      0.00043282989  76304.447    
     97000   1.0016687      0.0023323615  -0.0019514304   22.013024      20.525546      1.487478       0.0048369955   75790.407    
     98000   1.02143        0.0023323615  -0.0057874974   22.177965      20.661142      1.5168235      0              74790.612    
     99000   1.032786       0.0023323615   0.0018228259   21.975336      20.441649      1.5336871      7.1595851e-05  77708.633    
    100000   1.0594928      0.0023323615   0.0036169719   22.011024      20.437677      1.5733468      0.00032948157  76066.787    
    100362   1.1904942      0.0023323615  -0.00089755607  22.316856      20.548972      1.7678839      0.00063845255  75572.204    
Loop time of 1.31647 on 1 procs for 100000 steps with 100 atoms

Performance: 32815124.907 tau/day, 75960.937 timesteps/s
99.3% CPU use with 1 MPI tasks x 1 OpenMP threads

MPI task timing breakdown:
Section |  min time  |  avg time  |  max time  |%varavg| %total
---------------------------------------------------------------
Pair    | 0.050778   | 0.050778   | 0.050778   |   0.0 |  3.86
Bond    | 0.12642    | 0.12642    | 0.12642    |   0.0 |  9.60
Neigh   | 0.80306    | 0.80306    | 0.80306    |   0.0 | 61.00
Comm    | 0.055698   | 0.055698   | 0.055698   |   0.0 |  4.23
Output  | 0.0011316  | 0.0011316  | 0.0011316  |   0.0 |  0.09
Modify  | 0.24623    | 0.24623    | 0.24623    |   0.0 | 18.70
Other   |            | 0.03314    |            |       |  2.52

Nlocal:            100 ave         100 max         100 min
Histogram: 1 0 0 0 0 0 0 0 0 0
Nghost:             60 ave          60 max          60 min
Histogram: 1 0 0 0 0 0 0 0 0 0
Neighs:             36 ave          36 max          36 min
Histogram: 1 0 0 0 0 0 0 0 0 0

Total # of neighbors = 36
Ave neighs/atom = 0.36
Ave special neighs/atom = 1.98
Neighbor list builds = 9821
Dangerous builds = 8265
unfix           nvtSoft
unfix           rampSoft
reset_timestep  0

write_data      ${outputfile_relaxed}
write_data      5_relaxed.data
System init for write_data ...
Generated 0 of 6 mixed pair_coeff terms from geometric mixing rule
WARNING: Communication cutoff 1.3 is shorter than a bond length based estimate of 1.7550000000000001. This may lead to errors. (src/comm.cpp:727)
WARNING: Not all mixed pair coeffs generated from mixing. Use write_data with 'pair ij' option to store all pair coeffs. (src/write_data.cpp:309)

###########################################################################
# Full LJ with Coulomb
######################################################################

# Cutoffs and parameters:
# - Values: Marcel Verkade's Bachelor Thesis
# - Mapping to atom groups: Patrick Onck's paper
# - 1: aliphatic, 2: aromatic, 3: anion, 4: cation
# pair_style	lj/cut/coul/cut <lj_cut_global> <coul_cut_global>
# pair_coeff	<type_1>  <type_2>  <eps>  <sigma>  <r_cut_lj>  <r_cut_coul>

# Problem: Onck's model is much more complex, and Marcel has no sigma reported
# Using sigma=1 randomly

variable		glob_ljeps equal 1.0
variable		glob_ljsig 	equal 1.0
variable		glob_coulcut equal 10.0
variable		att_ljcut equal 2.50
variable		rep_ljcut equal 1.12

pair_style		lj/cut/coul/cut 						${att_ljcut} 	${glob_coulcut}
pair_style		lj/cut/coul/cut 						2.5 	${glob_coulcut}
pair_style		lj/cut/coul/cut 						2.5 	10
pair_coeff		1 1 	${glob_ljeps} 	${glob_ljsig}	${att_ljcut} 	${glob_coulcut}
pair_coeff		1 1 	1 	${glob_ljsig}	${att_ljcut} 	${glob_coulcut}
pair_coeff		1 1 	1 	1	${att_ljcut} 	${glob_coulcut}
pair_coeff		1 1 	1 	1	2.5 	${glob_coulcut}
pair_coeff		1 1 	1 	1	2.5 	10
pair_coeff		1 2 	${glob_ljeps} 	${glob_ljsig}	${att_ljcut} 	${glob_coulcut}
pair_coeff		1 2 	1 	${glob_ljsig}	${att_ljcut} 	${glob_coulcut}
pair_coeff		1 2 	1 	1	${att_ljcut} 	${glob_coulcut}
pair_coeff		1 2 	1 	1	2.5 	${glob_coulcut}
pair_coeff		1 2 	1 	1	2.5 	10
pair_coeff		1 3 	${glob_ljeps} 	${glob_ljsig}	${rep_ljcut} 	${glob_coulcut}
pair_coeff		1 3 	1 	${glob_ljsig}	${rep_ljcut} 	${glob_coulcut}
pair_coeff		1 3 	1 	1	${rep_ljcut} 	${glob_coulcut}
pair_coeff		1 3 	1 	1	1.12 	${glob_coulcut}
pair_coeff		1 3 	1 	1	1.12 	10
pair_coeff		1 4 	${glob_ljeps} 	${glob_ljsig}	${rep_ljcut} 	${glob_coulcut}
pair_coeff		1 4 	1 	${glob_ljsig}	${rep_ljcut} 	${glob_coulcut}
pair_coeff		1 4 	1 	1	${rep_ljcut} 	${glob_coulcut}
pair_coeff		1 4 	1 	1	1.12 	${glob_coulcut}
pair_coeff		1 4 	1 	1	1.12 	10
pair_coeff		2 2 	${glob_ljeps} 	${glob_ljsig}	${att_ljcut} 	${glob_coulcut}
pair_coeff		2 2 	1 	${glob_ljsig}	${att_ljcut} 	${glob_coulcut}
pair_coeff		2 2 	1 	1	${att_ljcut} 	${glob_coulcut}
pair_coeff		2 2 	1 	1	2.5 	${glob_coulcut}
pair_coeff		2 2 	1 	1	2.5 	10
pair_coeff		2 3 	${glob_ljeps} 	${glob_ljsig}	${rep_ljcut} 	${glob_coulcut}
pair_coeff		2 3 	1 	${glob_ljsig}	${rep_ljcut} 	${glob_coulcut}
pair_coeff		2 3 	1 	1	${rep_ljcut} 	${glob_coulcut}
pair_coeff		2 3 	1 	1	1.12 	${glob_coulcut}
pair_coeff		2 3 	1 	1	1.12 	10
pair_coeff		2 4 	${glob_ljeps} 	${glob_ljsig}	${att_ljcut} 	${glob_coulcut}
pair_coeff		2 4 	1 	${glob_ljsig}	${att_ljcut} 	${glob_coulcut}
pair_coeff		2 4 	1 	1	${att_ljcut} 	${glob_coulcut}
pair_coeff		2 4 	1 	1	2.5 	${glob_coulcut}
pair_coeff		2 4 	1 	1	2.5 	10
pair_coeff		3 3 	${glob_ljeps} 	${glob_ljsig}	${rep_ljcut} 	${glob_coulcut}
pair_coeff		3 3 	1 	${glob_ljsig}	${rep_ljcut} 	${glob_coulcut}
pair_coeff		3 3 	1 	1	${rep_ljcut} 	${glob_coulcut}
pair_coeff		3 3 	1 	1	1.12 	${glob_coulcut}
pair_coeff		3 3 	1 	1	1.12 	10
pair_coeff		3 4 	${glob_ljeps} 	${glob_ljsig}	${att_ljcut} 	${glob_coulcut}
pair_coeff		3 4 	1 	${glob_ljsig}	${att_ljcut} 	${glob_coulcut}
pair_coeff		3 4 	1 	1	${att_ljcut} 	${glob_coulcut}
pair_coeff		3 4 	1 	1	2.5 	${glob_coulcut}
pair_coeff		3 4 	1 	1	2.5 	10
pair_coeff		4 4 	${glob_ljeps} 	${glob_ljsig}	${rep_ljcut} 	${glob_coulcut}
pair_coeff		4 4 	1 	${glob_ljsig}	${rep_ljcut} 	${glob_coulcut}
pair_coeff		4 4 	1 	1	${rep_ljcut} 	${glob_coulcut}
pair_coeff		4 4 	1 	1	1.12 	${glob_coulcut}
pair_coeff		4 4 	1 	1	1.12 	10


fix             noDriftRot 	all momentum 10 linear 1 1 1 angular
fix             nvt1 		all nvt temp ${Temp} ${Temp} 0.5
fix             nvt1 		all nvt temp 1 ${Temp} 0.5
fix             nvt1 		all nvt temp 1 1 0.5

# dump          assemble 	all custom 1000 				${outputfile_selfasb} id type xu yu zu vx vy vz
dump            lindump 	all custom ${subsample_rate} 	${outputfile_trajlin} id type xu yu zu vx vy vz
dump            lindump 	all custom 1000 	${outputfile_trajlin} id type xu yu zu vx vy vz
dump            lindump 	all custom 1000 	6_b_trajlin.data id type xu yu zu vx vy vz

run             ${runtime}
run             1000000
Generated 0 of 6 mixed pair_coeff terms from geometric mixing rule
Neighbor list info ...
  update every 1 steps, delay 10 steps, check yes
  max neighbors/atom: 2000, page size: 100000
  master list distance cutoff = 10.3
  ghost atom cutoff = 10.3
  binsize = 5.15, bins = 7 7 7
  1 neighbor lists, perpetual/occasional/extra = 1 0 0
  (1) pair lj/cut/coul/cut, perpetual
      attributes: half, newton on
      pair build: half/bin/newton
      stencil: half/bin/3d
      bin: standard
Per MPI rank memory allocation (min/avg/max) = 7.712 | 7.712 | 7.712 Mbytes
   Step          Temp         Density         Press          TotEng         PotEng         KinEng         E_pair         S/CPU     
         0   1.1904942      0.0023323615  -0.0014536595   21.957583      20.189699      1.7678839     -0.35863446     0            
      1000   1.0611168      0.0023323615   0.00049706655  21.422573      19.846814      1.5757584     -0.69821539     33476.568    
      2000   0.93636955     0.0023323615   0.00012226343  21.145718      19.75521       1.3905088     -0.72687305     31318.292    
      3000   0.99382873     0.0023323615   0.0057436248   20.784544      19.308709      1.4758357     -1.1506627      28117.325    
      4000   1.0349969      0.0023323615   0.00088068645  21.062754      19.525784      1.5369705     -0.99868772     22929.236    
      5000   1.0548881      0.0023323615   0.0018249792   20.474911      18.908402      1.5665088     -1.5790943      18972.301    
      6000   1.1245242      0.0023323615   0.0040682081   20.535757      18.865838      1.6699185     -1.6809504      18347.325    
      7000   0.8265219      0.0023323615  -0.0027933874   20.523038      19.295653      1.227385      -1.3479471      18282.511    
      8000   0.99226351     0.0023323615  -0.0030204164   20.569824      19.096313      1.4735113     -1.4455248      18486.348    
      9000   1.0402738      0.0023323615  -0.0024885183   20.514972      18.970166      1.5448066     -1.5497937      18386.344    
     10000   0.94872124     0.0023323615   0.0044790489   20.33411       18.925259      1.408851      -1.533544       18290.344    
     11000   1.0375298      0.0023323615   0.0038176377   20.133987      18.593255      1.5407317     -1.8451145      18444.504    
     12000   1.0844694      0.0023323615   0.0021515945   20.394078      18.783641      1.610437      -1.6988506      18301.945    
     13000   1.0110355      0.0023323615  -0.0026195724   20.251896      18.750508      1.5013878     -1.6985724      18301.103    
     14000   0.95734631     0.0023323615  -0.0030077359   20.441484      19.019824      1.4216593     -1.6157106      18262.875    
     15000   1.0885877      0.0023323615  -0.0027217951   20.335621      18.719068      1.6165527     -1.7593721      18225.692    
     16000   0.98395249     0.0023323615  -0.001250262    20.28962       18.82845       1.4611695     -1.6602613      18149.179    
     17000   0.85648132     0.0023323615   0.00091645     20.076504      18.804629      1.2718748     -1.7141769      18298.868    
     18000   0.93264539     0.0023323615   0.0021345155   20.367021      18.982043      1.3849784     -1.616559       18224.807    
     19000   1.0592237      0.0023323615   0.0040577958   20.461384      18.888436      1.5729473     -1.56401        18144.269    
     20000   0.89575605     0.0023323615  -0.00093679993  20.192416      18.862219      1.3301977     -1.5262917      18100.557    
     21000   0.89494849     0.0023323615   0.001238452    20.494335      19.165337      1.3289985     -1.4782358      18170.814    
     22000   1.1346545      0.0023323615   0.00090458119  20.676006      18.991044      1.6849619     -1.6377178      18263.634    
     23000   0.90438109     0.0023323615  -0.00053346202  19.889463      18.546457      1.3430059     -1.8853726      18239.744    
     24000   0.96893029     0.0023323615   0.0017561183   20.173222      18.73436       1.4388615     -1.7532435      18147.07     
     25000   1.0617586      0.0023323615   6.3742161e-05  20.275528      18.698816      1.5767116     -1.6580525      18182.909    
     26000   0.97182444     0.0023323615   0.0011069219   20.15007       18.706911      1.4431593     -1.7993454      18092.338    
     27000   1.0059624      0.0023323615   0.00049759036  20.253873      18.760018      1.4938542     -1.674527       18130.905    
     28000   0.99057333     0.0023323615   0.0032217592   20.116976      18.645974      1.4710014     -1.7213926      18349.149    
     29000   0.91027595     0.0023323615  -0.0010887678   20.237736      18.885977      1.3517598     -1.7535235      18267.846    
     30000   0.98739223     0.0023323615  -0.0013622781   20.538882      19.072604      1.4662775     -1.530976       18201.477    
     31000   0.992093       0.0023323615  -0.0021880466   20.070257      18.596999      1.4732581     -1.9818371      18209.696    
     32000   1.133509       0.0023323615   0.0047924329   20.57689       18.89363       1.6832609     -1.6253819      18254.982    
     33000   1.0099336      0.0023323615   0.0031243913   20.32589       18.826138      1.4997514     -1.79346        18359.504    
     34000   0.96748901     0.0023323615  -0.0023290378   20.274852      18.838131      1.4367212     -1.6584225      18188.78     
     35000   1.0037998      0.0023323615  -0.0047575576   20.403693      18.91305       1.4906427     -1.6511143      18189.168    
     36000   0.97825366     0.0023323615  -0.0014918664   20.328108      18.875401      1.4527067     -1.5909622      18351.606    
     37000   0.93131009     0.0023323615  -0.002072293    20.429992      19.046996      1.3829955     -1.4398521      18380.909    
     38000   0.93967544     0.0023323615  -0.0012124336   20.3417        18.946282      1.395418      -1.4556056      18269.444    
     39000   0.99384411     0.0023323615   0.0081366502   20.124106      18.648248      1.4758585     -1.7292309      18295.685    
     40000   1.0772012      0.0023323615  -0.0046022755   20.635985      19.036341      1.5996438     -1.4759104      18358.255    
     41000   0.97841783     0.0023323615  -0.00030554379  20.325606      18.872656      1.4529505     -1.5307172      18339.167    
     42000   1.0243151      0.0023323615  -0.00097665992  20.312119      18.791011      1.5211079     -1.7323742      18224.365    
     43000   0.98072561     0.0023323615  -0.0024051485   19.985069      18.528692      1.4563775     -1.9761261      18184.389    
     44000   0.96978618     0.0023323615  -0.0016094635   20.01382       18.573688      1.4401325     -1.8482733      18133.642    
     45000   0.96562352     0.0023323615   0.0026268223   20.441693      19.007742      1.4339509     -1.6591715      18115.708    
     46000   1.0840442      0.0023323615   0.00092042771  20.444517      18.834711      1.6098056     -1.6911226      18101.072    
     47000   0.92530856     0.0023323615  -0.0023661314   20.31565       18.941567      1.3740832     -1.5924939      18190.394    
     48000   0.82337246     0.0023323615  -0.00056242703  19.808887      18.586179      1.2227081     -1.901705       18253.007    
     49000   0.81829768     0.0023323615   0.00055209997  20.156549      18.941377      1.2151721     -1.5203047      18225.926    
     50000   0.85216903     0.0023323615  -0.0034014069   20.194326      18.928855      1.265471      -1.7046681      18147.618    
     51000   1.0050943      0.0023323615   0.00099748807  20.070336      18.577771      1.4925651     -1.9506255      18183.373    
     52000   1.1681921      0.0023323615  -0.0014091107   20.512679      18.777914      1.7347653     -1.7376024      18245.192    
     53000   0.97619941     0.0023323615  -0.0050206768   20.401401      18.951745      1.4496561     -1.6015281      18161.328    
     54000   0.92587409     0.0023323615  -0.0036028298   20.294769      18.919845      1.374923      -1.7077457      18143.979    
     55000   1.0202506      0.0023323615   0.0018144388   20.378705      18.863633      1.5150721     -1.582087       18191.81     
     56000   1.0920918      0.0023323615   0.0014707368   20.428212      18.806455      1.6217563     -1.6792356      18176.131    
     57000   0.97642447     0.0023323615  -0.0026964836   20.676014      19.226023      1.4499903     -1.3923248      18371.69     
     58000   0.98779827     0.0023323615  -0.0016387494   20.338984      18.872103      1.4668804     -1.6865136      18268.364    
     59000   1.0105942      0.0023323615   9.1319332e-05  20.029306      18.528574      1.5007325     -1.9949124      18214.255    
     60000   0.85067195     0.0023323615  -0.0028483339   20.02469       18.761442      1.2632478     -1.7561589      18227.221    
     61000   0.96990284     0.0023323615   0.0002734412   20.06343       18.623124      1.4403057     -1.8850955      18169.749    
     62000   0.87902482     0.0023323615   7.20193e-05    19.949048      18.643696      1.3053519     -1.8746961      18003.789    
     63000   1.0191852      0.0023323615   0.00061798093  20.269366      18.755876      1.5134901     -1.8056072      18163.575    
     64000   1.0076223      0.0023323615   8.9725532e-05  20.233681      18.737362      1.4963191     -1.8155005      18203.147    
     65000   0.88869877     0.0023323615  -0.0014639922   20.230577      18.910859      1.3197177     -1.6863506      18346.195    
     66000   1.0347861      0.0023323615   0.0013063689   20.45533       18.918672      1.5366573     -1.5759247      18130.944    
     67000   1.0044766      0.0023323615   0.0011156606   20.213029      18.721381      1.4916478     -1.7067754      18221.43     
     68000   0.96096515     0.0023323615  -0.0013860557   20.544835      19.117801      1.4270332     -1.4969906      18175.516    
     69000   0.85264812     0.0023323615  -0.0055712444   20.159899      18.893716      1.2661825     -1.5710599      18231.159    
     70000   0.97924085     0.0023323615   0.0011931726   20.505317      19.051144      1.4541727     -1.4567225      18287.925    
     71000   0.89062723     0.0023323615  -0.0013893595   20.320994      18.998412      1.3225814     -1.5536468      18126.68     
     72000   0.9401944      0.0023323615   0.00064719176  20.314774      18.918586      1.3961887     -1.5801159      18107.738    
     73000   1.014351       0.0023323615   0.00012395785  19.977364      18.471053      1.5063112     -1.8821997      18190.438    
     74000   0.94389546     0.0023323615  -0.00074460706  20.245198      18.843513      1.4016848     -1.7209107      18266.595    
     75000   1.007933       0.0023323615   0.001038211    20.457319      18.960538      1.4967805     -1.5584153      18302.032    
     76000   0.89451867     0.0023323615  -0.0028119911   19.933582      18.605222      1.3283602     -1.9025187      18172.676    
     77000   0.8547594      0.0023323615   0.002525891    19.996432      18.727114      1.2693177     -1.620647       18129.522    
     78000   0.93833152     0.0023323615  -0.0029611395   20.126853      18.733431      1.3934223     -1.865749       18249.182    
     79000   1.0097221      0.0023323615  -0.0017358753   20.397987      18.89855       1.4994374     -1.6902562      18217.144    
     80000   0.9300908      0.0023323615  -0.003193017    20.206666      18.825481      1.3811848     -1.6978936      18214.531    
     81000   1.1619232      0.0023323615  -0.0041557623   20.543527      18.818071      1.725456      -1.599605       18117.984    
     82000   1.0766894      0.0023323615  -0.00027774907  20.364879      18.765996      1.5988838     -1.774477       18262.474    
     83000   1.0932599      0.0023323615  -0.0018670058   20.382412      18.758921      1.623491      -1.6411721      18233.111    
     84000   1.0053732      0.0023323615   0.00034266277  20.340189      18.847209      1.4929792     -1.7284816      18409.217    
     85000   1.0642071      0.0023323615  -0.00024588539  20.411002      18.830655      1.5803476     -1.7211858      18379.596    
     86000   1.0391844      0.0023323615  -0.0030208369   20.568634      19.025445      1.5431889     -1.6535457      18196.805    
     87000   1.009067       0.0023323615   0.0016113874   20.773434      19.274969      1.4984645     -1.3582361      18204.352    
     88000   0.92274774     0.0023323615  -0.0032568249   20.312163      18.941883      1.3702804     -1.493451       18211.646    
     89000   1.0473509      0.0023323615  -0.003968649    20.55457       18.999254      1.5553161     -1.6035331      18271.791    
     90000   0.8813012      0.0023323615   0.0044667384   20.304632      18.9959        1.3087323     -1.7337139      18238.945    
     91000   0.94014714     0.0023323615  -0.0021806892   20.208976      18.812857      1.3961185     -1.7561763      18354.258    
     92000   0.92360758     0.0023323615   0.0012090772   20.229881      18.858324      1.3715573     -1.724782       18333.815    
     93000   1.0331141      0.0023323615  -0.00071523894  20.296171      18.761996      1.5341745     -1.6342596      18413.054    
     94000   1.005169       0.0023323615   0.0020739482   20.233032      18.740355      1.492676      -1.7354797      18439.829    
     95000   1.0480822      0.0023323615  -0.00087924387  20.278844      18.722442      1.556402      -1.7278132      18205.159    
     96000   1.1552034      0.0023323615   0.0047007663   20.669729      18.954252      1.7154771     -1.5703631      18385.297    
     97000   1.0046576      0.0023323615  -0.0013946489   20.657686      19.165769      1.4919166     -1.3207955      18413.747    
     98000   0.97754913     0.0023323615  -0.0011619579   20.222144      18.770484      1.4516605     -1.7023052      18335.677    
     99000   1.1145498      0.0023323615   0.0013314917   20.645783      18.990676      1.6551065     -1.4475033      18302.623    
    100000   1.0925596      0.0023323615   0.0015516739   20.516694      18.894243      1.622451      -1.5234056      18302.062    
    101000   1.0775945      0.0023323615   0.00072615674  20.549319      18.949091      1.6002278     -1.5526109      18470.287    
    102000   0.984116       0.0023323615  -0.0048331109   20.236414      18.775002      1.4614123     -1.6808385      18280.539    
    103000   0.99534699     0.0023323615   0.0024641975   20.268856      18.790765      1.4780903     -1.6494851      18314.955    
    104000   1.0618645      0.0023323615  -0.0011285271   20.629285      19.052417      1.5768687     -1.4377788      18224.801    
    105000   1.1271172      0.0023323615   0.0025985751   20.772908      19.099139      1.673769      -1.479408       18322.809    
    106000   0.88982898     0.0023323615   0.00070067991  20.221454      18.900058      1.321396      -1.6484355      18342.962    
    107000   1.0234237      0.0023323615   0.00099400127  20.337849      18.818065      1.5197841     -1.6316153      18311.108    
    108000   0.97559643     0.0023323615  -0.0019692195   20.125011      18.676251      1.4487607     -1.721405       18243.965    
    109000   0.93170819     0.0023323615  -0.0012074574   20.00599       18.622404      1.3835867     -1.8804809      18127.974    
    110000   1.0633962      0.0023323615   0.0032034938   20.631617      19.052473      1.5791434     -1.4984721      18014.08     
    111000   0.88644888     0.0023323615   0.0010204679   20.06713       18.750753      1.3163766     -1.7192845      18165.086    
    112000   0.95159887     0.0023323615   0.00077369443  20.295378      18.882254      1.4131243     -1.5517855      18315.163    
    113000   0.92983975     0.0023323615   0.0039105507   20.165135      18.784322      1.380812      -1.7657187      18319.674    
    114000   0.9699734      0.0023323615  -0.0038100146   20.470588      19.030178      1.4404105     -1.4620446      18323.885    
    115000   0.97934133     0.0023323615   0.0015023052   20.207295      18.752973      1.4543219     -1.7324741      18264.783    
    116000   1.1660359      0.0023323615   0.0038846034   20.651584      18.920021      1.7315634     -1.546994       18240.648    
    117000   1.0045047      0.0023323615   0.00074344292  20.434242      18.942552      1.4916895     -1.591694       18273.949    
    118000   1.0836574      0.0023323615  -0.0066690725   20.607533      18.998302      1.6092312     -1.6211427      18198.474    
    119000   1.069817       0.0023323615   0.0012599358   20.515415      18.926737      1.5886782     -1.6027969      18313.235    
    120000   0.91572198     0.0023323615  -0.0015249192   20.227619      18.867772      1.3598471     -1.6175223      18276.767    
    121000   1.1307428      0.0023323615   0.00070089395  20.358179      18.679026      1.6791531     -1.8964798      18287.379    
    122000   0.91089905     0.0023323615   0.00047211002  19.991521      18.638836      1.3526851     -1.8797298      18337.738    
    123000   1.0288221      0.0023323615   0.0019140326   20.41544       18.88764       1.5278008     -1.7391957      18269.176    
    124000   1.0959264      0.0023323615   0.0020126666   20.398668      18.771217      1.6274508     -1.7294624      18339.719    
    125000   0.90774301     0.0023323615   0.0022037768   20.131073      18.783074      1.3479984     -1.6863782      18263.36     
    126000   1.1142413      0.0023323615   0.0033760592   20.529475      18.874826      1.6546483     -1.6413839      18340.616    
    127000   0.94472887     0.0023323615  -0.003974379    20.266416      18.863493      1.4029224     -1.6302421      18376.663    
    128000   1.0524583      0.0023323615  -0.0025217291   20.770332      19.207432      1.5629006     -1.4363656      18353.195    
    129000   1.0530154      0.0023323615   0.0023705535   20.524384      18.960656      1.5637278     -1.6388971      18412.168    
    130000   0.93862829     0.0023323615  -0.0025915553   20.106519      18.712656      1.393863      -1.7819114      18260.884    
    131000   1.043242       0.0023323615  -0.00032128444  20.337157      18.787942      1.5492144     -1.7307333      18381.928    
    132000   1.0081749      0.0023323615  -0.0017732511   20.388957      18.891818      1.4971397     -1.6503787      18277.386    
    133000   0.94237945     0.0023323615  -0.002122599    20.036275      18.636842      1.3994335     -1.8456478      18145.688    
    134000   0.97715646     0.0023323615  -0.00078096279  20.170013      18.718936      1.4510773     -1.8186383      18129.847    
    135000   1.0318934      0.0023323615   0.0021312929   20.307831      18.775469      1.5323617     -1.6992206      18124.85     
    136000   1.0678977      0.0023323615  -0.00027126583  20.432569      18.846741      1.585828      -1.7311368      18201.228    
    137000   1.0144299      0.0023323615   0.0014785146   20.315363      18.808935      1.5064284     -1.7033243      18235.542    
    138000   1.0358669      0.0023323615  -0.0025154236   20.292376      18.754114      1.5382623     -1.725861       18190.441    
    139000   1.0110768      0.0023323615   0.0031932387   20.243169      18.74172       1.501449      -1.6799753      18284.079    
    140000   1.0946852      0.0023323615  -0.0026979382   20.373866      18.748259      1.6256075     -1.7682748      18299.938    
    141000   1.0553538      0.0023323615   0.00063319994  20.542229      18.975029      1.5672003     -1.5142352      18267.09     
    142000   1.1911364      0.0023323615   0.0049908451   20.654948      18.886111      1.7688375     -1.655715       18284.682    
    143000   1.0236761      0.0023323615   0.0020069193   20.222201      18.702042      1.520159      -1.7798266      18231.691    
    144000   0.99976277     0.0023323615  -0.0003274694   20.418316      18.933668      1.4846477     -1.6483805      18278.966    
    145000   0.79093807     0.0023323615  -0.0027997572   20.222436      19.047893      1.174543      -1.4861376      18289.533    
    146000   0.9626279      0.0023323615  -0.00057803321  20.191384      18.761881      1.4295024     -1.7417975      18248.521    
    147000   1.0162599      0.0023323615  -0.0027830446   20.24619       18.737044      1.509146      -1.7780538      18295.363    
    148000   1.0313007      0.0023323615  -0.0074909847   20.468102      18.936621      1.5314816     -1.7413122      18150.047    
    149000   1.0299092      0.0023323615   0.0021241008   20.297647      18.768232      1.5294151     -1.7902749      18217.882    
    150000   1.1670062      0.0023323615   0.0014441393   20.454448      18.721444      1.7330043     -1.7859566      18160.323    
    151000   0.9925147      0.0023323615  -0.0017461988   20.162807      18.688922      1.4738843     -1.7892625      18264.647    
    152000   0.88925498     0.0023323615   0.00055293946  20.385623      19.06508       1.3205436     -1.5557094      18227.606    
    153000   1.089759       0.0023323615   0.0023129761   20.284735      18.666443      1.6182922     -1.856834       18300.673    
    154000   1.069829       0.0023323615   0.003379041    20.687768      19.099072      1.5886961     -1.4797391      18349.112    
    155000   0.99626734     0.0023323615  -0.0046634264   20.61312       19.133663      1.479457      -1.4347117      18424.815    
    156000   1.0993538      0.0023323615   0.00071070322  20.597985      18.965444      1.6325404     -1.5757419      18196.4      
    157000   0.85324522     0.0023323615  -7.6270118e-05  20.175784      18.908715      1.2670691     -1.6909606      18285.211    
    158000   0.99542599     0.0023323615   5.6694743e-05  20.579347      19.10114       1.4782076     -1.4850439      18320.001    
    159000   0.9618131      0.0023323615  -0.00069470319  20.423139      18.994846      1.4282925     -1.5092217      18326.102    
    160000   1.1071977      0.0023323615  -0.00018478171  20.669407      19.025218      1.6441886     -1.595756       18322.594    
    161000   1.0598673      0.0023323615   0.0015785738   20.274826      18.700923      1.5739029     -1.6870816      18325.47     
    162000   1.0490348      0.0023323615  -0.00066259609  20.469883      18.912066      1.5578167     -1.6097102      18427.713    
    163000   0.97234152     0.0023323615   0.0018238835   20.259992      18.816065      1.4439272     -1.6937775      18287.881    
    164000   0.98238969     0.0023323615   0.0026060716   20.297612      18.838763      1.4588487     -1.712704       18259.06     
    165000   0.85440451     0.0023323615   0.0011848836   19.945105      18.676315      1.2687907     -1.8430792      18129.92     
    166000   1.006192       0.0023323615  -0.00096382416  20.318285      18.82409       1.4941951     -1.6118474      18313.191    
    167000   0.93251643     0.0023323615  -0.0024533459   20.316666      18.931879      1.3847869     -1.7323874      18371.345    
    168000   0.89583522     0.0023323615   0.0013929379   19.999608      18.669293      1.3303153     -1.7490972      18198.696    
    169000   0.96392829     0.0023323615   0.0012641047   20.353316      18.921883      1.4314335     -1.6198802      18281.912    
    170000   0.98553122     0.0023323615  -0.0012605637   20.413004      18.94949       1.4635139     -1.4863689      18504.691    
    171000   0.9475956      0.0023323615  -0.00070747143  20.42855       19.02137       1.4071795     -1.5884539      18502.183    
    172000   0.97630671     0.0023323615   0.0052450223   20.094162      18.644347      1.4498155     -1.780275       18261.672    
    173000   0.94052747     0.0023323615  -0.0013583564   20.573443      19.176759      1.3966833     -1.4946547      18175.902    
    174000   0.99558672     0.0023323615   0.0017677741   20.465626      18.98718       1.4784463     -1.5130467      18237.585    
    175000   0.87831512     0.0023323615  -0.00040612717  20.359791      19.055493      1.304298      -1.4572164      18287.59     
    176000   1.0268458      0.0023323615  -0.0032943727   20.502642      18.977776      1.524866      -1.6404381      18235.732    
    177000   0.86832587     0.0023323615  -0.0020013045   20.355602      19.066138      1.2894639     -1.3034465      18321.84     
    178000   0.95563664     0.0023323615   0.00036060835  20.459976      19.040856      1.4191204     -1.4846728      18344.246    
    179000   1.1178905      0.0023323615  -0.00010421729  20.117247      18.457179      1.6600673     -1.9861131      18313.147    
    180000   0.99382754     0.0023323615   0.0011789238   19.972051      18.496217      1.4758339     -1.8572084      18171.7      
    181000   0.96213856     0.0023323615  -0.00013004196  20.447283      19.018507      1.4287758     -1.4229001      18174.46     
    182000   0.86039127     0.0023323615  -0.0011707507   20.281063      19.003382      1.277681      -1.5682851      18163.043    
    183000   0.94347217     0.0023323615  -0.0020684138   20.540367      19.139311      1.4010562     -1.4874091      18077.341    
    184000   0.98091924     0.0023323615  -0.0029615431   20.447907      18.991242      1.4566651     -1.5398475      18118.543    
    185000   0.99777916     0.0023323615  -0.00088808264  20.398471      18.916769      1.4817021     -1.6899914      18176.753    
    186000   1.0255751      0.0023323615   0.0010789339   20.413775      18.890796      1.522979      -1.6431303      18312.23     
    187000   0.97062067     0.0023323615   0.00036278018  20.288759      18.847388      1.4413717     -1.6997116      18165.092    
    188000   1.1884859      0.0023323615  -0.0039738202   20.752491      18.98759       1.7649015     -1.4994458      18207.796    
    189000   1.1688059      0.0023323615   0.0047492758   20.750276      19.0146        1.7356767     -1.4948515      18167.347    
    190000   0.93666331     0.0023323615   0.0011770409   20.36667       18.975725      1.390945      -1.6321826      18305.251    
    191000   0.94351462     0.0023323615   0.0058919137   20.186291      18.785172      1.4011192     -1.6709806      18309.516    
    192000   1.0788142      0.0023323615   0.0011075533   20.600465      18.998426      1.6020391     -1.4749988      18311.612    
    193000   1.1362931      0.0023323615  -0.0042213857   20.57939       18.891994      1.6873953     -1.6615342      18323.885    
    194000   0.9441795      0.0023323615   0.0029232299   20.263427      18.86132       1.4021066     -1.582191       18162.356    
    195000   1.0678029      0.0023323615  -0.0011858484   20.226704      18.641016      1.5856874     -1.8164974      18334.75     
    196000   1.1309164      0.0023323615  -0.0040929574   20.633613      18.954202      1.6794109     -1.6692877      18225.982    
    197000   0.99310089     0.0023323615  -0.0032251581   20.489427      19.014672      1.4747548     -1.4623578      18281.577    
    198000   0.82285491     0.0023323615   0.00074906419  20.112278      18.890339      1.2219395     -1.7226397      18168.674    
    199000   1.0523098      0.0023323615   0.0004769617   20.315738      18.753058      1.5626801     -1.7082902      18316.242    
    200000   1.1122984      0.0023323615   0.0013377967   20.556209      18.904446      1.6517631     -1.5211324      18254.809    
    201000   1.0614164      0.0023323615   0.00034798618  20.375699      18.799496      1.5762033     -1.6656335      18305.54     
    202000   1.0613777      0.0023323615   0.00095641473  20.614357      19.038211      1.5761459     -1.4174168      18428.06     
    203000   0.92986315     0.0023323615   0.0013066621   20.29345       18.912603      1.3808468     -1.5269552      18363.804    
    204000   0.99612376     0.0023323615   0.0038562252   20.468808      18.989564      1.4792438     -1.5002553      18200.468    
    205000   0.93389365     0.0023323615  -0.0014579917   20.086365      18.699533      1.3868321     -1.7439771      18304.939    
    206000   0.97085825     0.0023323615  -0.0015556106   20.490952      19.049228      1.4417245     -1.5688192      18270.4      
    207000   1.0208094      0.0023323615  -0.004062236    20.51741       19.001508      1.515902      -1.4978966      18321.4      
    208000   0.84356404     0.0023323615   0.0022610015   20.194128      18.941436      1.2526926     -1.6183927      18177.531    
    209000   0.94276485     0.0023323615  -0.00053940202  20.226177      18.826171      1.4000058     -1.8100805      18167.88     
    210000   0.90083972     0.0023323615   0.002769796    20.198036      18.860289      1.337747      -1.6679147      18228.495    
    211000   1.0733669      0.0023323615   0.0017928209   20.570789      18.976839      1.5939498     -1.5329331      18284.116    
    212000   1.1272088      0.0023323615  -0.00059423319  20.80689       19.132985      1.673905      -1.3311011      18222.349    
    213000   0.93789295     0.0023323615  -0.0019214185   20.227701      18.83493       1.392771      -1.7287504      18221.228    
    214000   0.8610516      0.0023323615   0.0026587883   20.134366      18.855704      1.2786616     -1.7993394      18173.705    
    215000   0.98249429     0.0023323615  -0.00074847413  20.218839      18.759835      1.459004      -1.6148817      18262.852    
    216000   1.2210604      0.0023323615  -0.0032752766   20.697111      18.883836      1.8132747     -1.6797922      18277.948    
    217000   0.92979281     0.0023323615  -0.005231806    20.332387      18.951645      1.3807423     -1.6251558      18200.75     
    218000   0.9388602      0.0023323615   0.0016918294   20.33824       18.944033      1.3942074     -1.626536       18349.774    
    219000   1.1083909      0.0023323615   0.0045670597   20.49486       18.8489        1.6459604     -1.6923686      18177.614    
    220000   1.0270842      0.0023323615  -0.0019964239   20.339775      18.814555      1.5252201     -1.7302818      18288.675    
    221000   0.9721115      0.0023323615  -0.0031318048   20.326125      18.882539      1.4435856     -1.6232843      18252.703    
    222000   0.95573569     0.0023323615  -0.0017080076   20.149276      18.730009      1.4192675     -1.8441646      18286.849    
    223000   0.95078561     0.0023323615  -0.0024679726   20.017025      18.605108      1.4119166     -1.8684883      18219.758    
    224000   1.0187756      0.0023323615  -0.0019391044   20.400277      18.887395      1.5128817     -1.622163       18409.845    
    225000   0.99476906     0.0023323615   0.0022368824   20.173839      18.696607      1.477232      -1.7073262      18192.706    
    226000   1.0395654      0.0023323615   0.0021397584   20.321007      18.777253      1.5437546     -1.6952086      18343.026    
    227000   1.046129       0.0023323615  -0.00067808163  20.303594      18.750092      1.5535016     -1.7769159      18207.593    
    228000   1.0097653      0.0023323615  -0.0030851708   20.764135      19.264634      1.4995014     -1.4591887      18244.645    
    229000   1.0704352      0.0023323615  -0.0019507112   20.453611      18.864015      1.5895963     -1.7086121      18125.413    
    230000   0.83380202     0.0023323615  -0.0078330344   20.483184      19.244988      1.238196      -1.4892628      18183.747    
    231000   0.85457149     0.0023323615   0.0062118882   19.838746      18.569708      1.2690387     -1.8476203      18171.628    
    232000   0.85892687     0.0023323615  -0.0017787737   20.215259      18.939752      1.2755064     -1.6055123      18232.131    
    233000   1.0698367      0.0023323615   0.006488167    20.397438      18.80873       1.5887076     -1.8466597      18114.242    
    234000   1.0379236      0.0023323615  -0.00046782178  20.305829      18.764512      1.5413166     -1.6942168      18088.574    
    235000   1.2202958      0.0023323615  -0.0023157897   20.816483      19.004344      1.8121393     -1.5235756      18212.351    
    236000   0.91213445     0.0023323615   0.0053746853   20.019048      18.664528      1.3545197     -1.8234267      18357.033    
    237000   1.0330952      0.0023323615   0.0017440034   20.373848      18.839702      1.5341463     -1.7266675      18364.876    
    238000   0.95621133     0.0023323615   0.00071667668  20.071514      18.65154       1.4199738     -1.864535       18331.444    
    239000   1.0050157      0.0023323615  -0.0009037863   20.29954       18.807092      1.4924484     -1.6850983      18395.92     
    240000   0.99249748     0.0023323615  -0.0032363263   20.53934       19.065481      1.4738588     -1.5934335      18249.549    
    241000   1.08147        0.0023323615   0.00033303443  20.199678      18.593695      1.605983      -1.8731454      18311.504    
    242000   1.0521585      0.0023323615   0.0019157581   20.291446      18.72899       1.5624553     -1.8203422      18233.877    
    243000   0.98490351     0.0023323615   0.0014342113   20.03294       18.570358      1.4625817     -1.8969148      18274.822    
    244000   1.0248369      0.0023323615   0.00040576827  20.399831      18.877948      1.5218828     -1.6469656      18346.428    
    245000   0.81890662     0.0023323615   0.0014973968   20.147534      18.931458      1.2160763     -1.7150372      18257.577    
    246000   0.95399146     0.0023323615   0.0033281529   20.194646      18.777969      1.4166773     -1.7356449      18210.158    
    247000   1.071128       0.0023323615   0.0046784986   20.44946       18.858835      1.590625      -1.737046       18265.623    
    248000   1.1281213      0.0023323615   0.0014688227   20.343379      18.668119      1.6752602     -1.6131779      18280.851    
    249000   1.0378311      0.0023323615   0.002137464    20.812933      19.271754      1.5411792     -1.3570478      18299.532    
    250000   1.1121599      0.0023323615  -0.00071011884  20.549887      18.898329      1.6515574     -1.6010658      18274.033    
    251000   0.86164622     0.0023323615  -0.0016759376   20.076989      18.797444      1.2795446     -1.644985       18193.521    
    252000   1.0292819      0.0023323615   0.0013135761   20.55381       19.025327      1.5284836     -1.5057107      18118.267    
    253000   1.0517697      0.0023323615  -0.00035971819  20.642827      19.080949      1.561878      -1.4364555      18398.26     
    254000   1.0328956      0.0023323615   0.00083593674  20.554667      19.020817      1.53385       -1.4802811      18176.465    
    255000   0.94631513     0.0023323615   0.0052015981   19.95711       18.551832      1.405278      -1.8920784      18288.424    
    256000   0.99124829     0.0023323615  -0.0004581212   20.490252      19.018249      1.4720037     -1.5991708      18387.997    
    257000   0.92355243     0.0023323615   0.00018413632  20.315992      18.944516      1.3714754     -1.6441468      18245.222    
    258000   0.9574365      0.0023323615  -0.0034576643   20.319247      18.897454      1.4217932     -1.5974046      18328.222    
    259000   1.1798492      0.0023323615  -0.0011079424   20.536404      18.784328      1.752076      -1.6752417      18386.777    
    260000   1.0187053      0.0023323615   9.25676e-06    20.639483      19.126705      1.5127774     -1.5350721      18274.525    
    261000   0.89968286     0.0023323615   0.00096438025  20.372699      19.03667       1.3360291     -1.5196267      18330.468    
    262000   1.0631744      0.0023323615  -0.0028660653   20.601913      19.0231        1.578814      -1.5151496      18392.951    
    263000   0.99204547     0.0023323615   0.0048200956   20.60767       19.134482      1.4731875     -1.3899454      18319.056    
    264000   0.93654909     0.0023323615  -0.0017213261   20.334412      18.943637      1.3907754     -1.5423637      18348.785    
    265000   1.0657785      0.0023323615  -0.00063432867  20.288155      18.705474      1.5826811     -1.7820028      18249.823    
    266000   1.1785328      0.0023323615   0.002425084    20.806408      19.056287      1.7501212     -1.38976        18290.907    
    267000   1.079489       0.0023323615   0.0014151055   20.473217      18.870176      1.6030411     -1.6623261      18228.422    
    268000   0.94025583     0.0023323615   0.0034567485   20.532297      19.136017      1.3962799     -1.4152459      18306.289    
    269000   1.0122086      0.0023323615  -0.0026449854   20.551724      19.048594      1.5031298     -1.3992419      18435.092    
    270000   0.92635311     0.0023323615   0.001124305    20.190971      18.815337      1.3756344     -1.8163135      18220.712    
    271000   0.84579036     0.0023323615   0.0040318157   20.18914       18.933141      1.2559987     -1.5725247      18218.993    
    272000   1.0949958      0.0023323615   0.0017368607   20.541106      18.915037      1.6260687     -1.7024018      18175.747    
    273000   1.0026162      0.0023323615   0.0052546172   20.45147       18.962585      1.4888851     -1.527009       18376.375    
    274000   1.0488953      0.0023323615  -0.0002834053   20.625261      19.067652      1.5576096     -1.4746173      18356.682    
    275000   1.0083376      0.0023323615   0.00083953585  20.328886      18.831505      1.4973814     -1.6853194      18353.543    
    276000   0.99683867     0.0023323615   0.00077136253  20.502836      19.022531      1.4803054     -1.5160643      18209.879    
    277000   0.96971827     0.0023323615   0.0011003881   20.273763      18.833731      1.4400316     -1.5936032      18136.472    
    278000   0.9859265      0.0023323615  -0.0011942072   20.298762      18.834661      1.4641009     -1.6303283      18161.348    
    279000   1.0274866      0.0023323615  -0.0028031831   20.066916      18.541098      1.5258176     -1.9119423      18226.605    
    280000   1.0146559      0.0023323615  -0.0028086208   20.334649      18.827885      1.506764      -1.7110422      18169.067    
    281000   1.0318984      0.0023323615  -0.0015478304   20.444067      18.911698      1.5323691     -1.6817517      18154.13     
    282000   0.89453928     0.0023323615   0.0027614988   20.089211      18.76082       1.3283908     -1.7946468      18295.326    
    283000   0.7912081      0.0023323615  -0.0042089447   19.988938      18.813994      1.174944      -1.7039308      18159.193    
    284000   0.9727636      0.0023323615  -0.00079312366  20.279994      18.83544       1.4445539     -1.7583319      18066.817    
    285000   0.98598914     0.0023323615  -0.00045419056  20.453387      18.989193      1.4641939     -1.6650096      18072.251    
    286000   1.0429787      0.0023323615   0.0014041167   20.396009      18.847185      1.5488234     -1.6921574      18022.986    
    287000   1.1126831      0.0023323615   0.00056137204  20.482624      18.83029       1.6523344     -1.764265       18034.272    
    288000   1.0919323      0.0023323615   0.0016339725   20.209286      18.587766      1.6215194     -1.8552827      18050.06     
    289000   1.0178249      0.0023323615   0.0079501704   20.138583      18.627113      1.51147       -1.9424227      18095.897    
    290000   1.0642297      0.0023323615   0.0036280606   20.055684      18.475302      1.5803812     -1.9357866      18141.301    
    291000   1.0815316      0.0023323615  -0.002992382    20.637372      19.031297      1.6060744     -1.49909        18228.292    
    292000   1.2105713      0.0023323615  -0.0019160515   20.96238       19.164681      1.7976984     -1.3857433      18350.512    
    293000   0.98678678     0.0023323615   0.0007500501   20.311331      18.845953      1.4653784     -1.6567303      18165.456    
    294000   0.98272537     0.0023323615  -0.0024769023   20.564864      19.105517      1.4593472     -1.5574527      18223.752    
    295000   1.1889184      0.0023323615   0.0022540874   20.20256       18.437016      1.7655438     -1.9653835      18356.297    
    296000   1.1642906      0.0023323615   0.0035302367   20.458454      18.729483      1.7289716     -1.8025864      18393.645    
    297000   1.0069261      0.0023323615  -0.0016684107   20.607479      19.112194      1.4952853     -1.4099303      18254.291    
    298000   1.0458137      0.0023323615   0.0010172324   20.561176      19.008142      1.5530334     -1.4965775      18314.898    
    299000   0.76619837     0.0023323615   0.0055540563   19.943403      18.805598      1.1378046     -1.6625453      18273.876    
    300000   1.0924728      0.0023323615   0.00036863429  20.468639      18.846316      1.6223221     -1.5906157      18310.365    
    301000   1.012731       0.0023323615   0.0014075751   20.285996      18.782091      1.5039055     -1.6865804      18177.383    
    302000   0.91060838     0.0023323615  -0.0015138145   19.984669      18.632416      1.3522534     -1.7460142      18311.662    
    303000   0.9007704      0.0023323615  -0.0016674599   19.88787       18.550226      1.337644      -1.8611688      18119.668    
    304000   0.99804373     0.0023323615   0.0029544436   20.432089      18.949994      1.4820949     -1.6889876      18228.925    
    305000   0.9388268      0.0023323615   0.00014929658  20.388215      18.994057      1.3941578     -1.6191263      18291.504    
    306000   1.1022777      0.0023323615   0.0021320263   20.390737      18.753855      1.6368824     -1.746312       18343.663    
    307000   1.023364       0.0023323615   0.00082410176  20.587749      19.068053      1.5196956     -1.5586411      18450.853    
    308000   1.1872645      0.0023323615   0.0015214797   20.907654      19.144566      1.7630878     -1.2346254      18417.138    
    309000   0.97771849     0.0023323615   0.002301489    20.4493        18.997388      1.451912      -1.4473397      18548.749    
    310000   0.96018965     0.0023323615   0.0067163439   20.423776      18.997894      1.4258816     -1.3375466      18586.342    
    311000   1.0136844      0.0023323615   0.0026571265   20.349114      18.843793      1.5053214     -1.624447       18696.9      
    312000   0.91380039     0.0023323615   0.0034798302   20.411537      19.054543      1.3569936     -1.4251255      18613.842    
    313000   1.0525767      0.0023323615  -0.0008595117   20.535925      18.972849      1.5630764     -1.5380906      18284.441    
    314000   1.0804403      0.0023323615  -0.0017276868   20.49683       18.892376      1.6044539     -1.7572416      18285.03     
    315000   0.91808951     0.0023323615  -0.0002321414   20.237425      18.874062      1.3633629     -1.67225        18242.745    
    316000   1.0224147      0.0023323615   0.0028466978   20.201198      18.682912      1.5182858     -1.7449318      18200.212    
    317000   0.90452613     0.0023323615   0.0011060588   20.478418      19.135197      1.3432213     -1.4998138      18235.209    
    318000   1.1045718      0.0023323615  -0.00070657308  20.392388      18.752099      1.6402891     -1.8356893      18304.21     
    319000   1.0336062      0.0023323615  -0.003721224    20.071441      18.536536      1.5349052     -2.0225293      18444.923    
    320000   1.0856891      0.0023323615  -0.0032152685   20.467814      18.855566      1.6122483     -1.7182576      18389.806    
    321000   1.0120815      0.0023323615   0.0055982728   20.330967      18.828026      1.502941      -1.693066       18344.607    
    322000   0.99535895     0.0023323615  -0.0013775858   20.249235      18.771127      1.478108      -1.7366198      18294.685    
    323000   0.81728325     0.0023323615   0.0016283443   20.013992      18.800327      1.2136656     -1.8454668      18719.408    
    324000   1.0067852      0.0023323615  -0.0043209588   19.948927      18.453851      1.495076      -1.9750528      18636.788    
    325000   1.0387667      0.0023323615  -0.0051740865   20.379674      18.837106      1.5425685     -1.7834853      18632.352    
    326000   1.1266517      0.0023323615  -0.0023220468   20.512763      18.839686      1.6730778     -1.6763332      18404.393    
    327000   0.99855774     0.0023323615  -0.00030799975  20.270691      18.787833      1.4828582     -1.7275176      18421.434    
    328000   0.94153893     0.0023323615  -0.0019415114   19.99991       18.601725      1.3981853     -2.0022905      18293.814    
    329000   0.81204065     0.0023323615   0.0013026612   20.165226      18.959346      1.2058804     -1.5459357      18305.409    
    330000   0.96950505     0.0023323615   0.0063925873   20.347537      18.907822      1.439715      -1.6291921      18310.48     
    331000   1.1643304      0.0023323615   0.00069745153  20.303237      18.574206      1.7290307     -1.8531282      18201.368    
    332000   0.91962073     0.0023323615  -0.00050627436  19.924995      18.559358      1.3656368     -1.774521       18198.142    
    333000   1.0092636      0.0023323615   0.0011393133   20.284617      18.78586       1.4987565     -1.7597454      18159.415    
    334000   0.95450156     0.0023323615  -0.0018423965   20.169323      18.751888      1.4174348     -1.7407236      18045.038    
    335000   1.0748395      0.0023323615   0.00069008407  20.212819      18.616683      1.5961366     -1.8417222      18001.571    
    336000   1.0191126      0.0023323615   0.00085671161  20.028355      18.514973      1.5133822     -2.1797474      18099.897    
    337000   0.89226587     0.0023323615  -0.0013683746   20.184923      18.859908      1.3250148     -1.6652122      18060.416    
    338000   0.94181127     0.0023323615   0.001125392    20.362144      18.963555      1.3985897     -1.5364663      18162.508    
    339000   0.97554058     0.0023323615  -0.00075891069  20.604765      19.156087      1.4486778     -1.3733319      18262.468    
    340000   1.0636427      0.0023323615   0.0043752051   20.672604      19.093095      1.5795095     -1.3986484      18322.462    
    341000   0.92314726     0.0023323615  -0.0013819461   20.283205      18.912331      1.3708737     -1.7215826      18183.624    
    342000   1.0454501      0.0023323615  -0.0031598366   20.398759      18.846266      1.5524934     -1.6908894      18095.202    
    343000   0.90317651     0.0023323615  -0.00013253696  20.097912      18.756695      1.3412171     -1.755718       18228.698    
    344000   0.99850547     0.0023323615  -0.0020689865   20.337461      18.85468       1.4827806     -1.6309221      18092.062    
    345000   0.9977267      0.0023323615  -0.00047339535  20.243215      18.761591      1.4816241     -1.7529795      18145.87     
    346000   1.0511344      0.0023323615   0.0017178071   20.669683      19.108748      1.5609346     -1.4715942      18305.201    
    347000   0.99359469     0.0023323615   0.0070559965   20.074954      18.599466      1.4754881     -1.9077813      18221.181    
    348000   1.0488732      0.0023323615  -0.0018669137   20.133466      18.57589       1.5575767     -1.9211367      18171.757    
    349000   1.0281952      0.0023323615  -0.0016647141   20.307447      18.780577      1.5268698     -1.7671102      18177.501    
    350000   0.98288743     0.0023323615   0.00089094784  20.32468       18.865092      1.4595878     -1.6477688      18275.773    
    351000   1.0215979      0.0023323615   0.002373579    20.364688      18.847615      1.5170729     -1.6820546      18214.405    
    352000   1.1599228      0.0023323615   0.0019032859   20.659864      18.937378      1.7224854     -1.5444639      18344.158    
    353000   0.92383454     0.0023323615   0.00049548417  20.079447      18.707553      1.3718943     -1.9044841      18119.526    
    354000   0.88710461     0.0023323615  -0.0027978403   20.313648      18.996298      1.3173503     -1.447615       18161.404    
    355000   1.0146749      0.0023323615   0.0018483904   20.115121      18.608329      1.5067922     -1.983478       18085.392    
    356000   0.94194729     0.0023323615   0.0014016541   20.380472      18.98168       1.3987917     -1.5943582      18125.673    
    357000   0.87390282     0.0023323615   0.0007603011   20.163212      18.865466      1.2977457     -1.6775057      18046.408    
    358000   0.90526001     0.0023323615  -0.0020685496   19.89389       18.549579      1.3443111     -1.8451889      18187.352    
    359000   0.9786446      0.0023323615   0.0011812261   20.205681      18.752394      1.4532872     -1.7018969      18073.544    
    360000   0.98981976     0.0023323615   0.00056637785  20.451174      18.981292      1.4698823     -1.5053235      18198.892    
    361000   0.92727681     0.0023323615  -0.0018676624   20.166429      18.789423      1.3770061     -1.732469       18157.792    
    362000   1.0452498      0.0023323615   0.0042128608   20.402926      18.85073       1.552196      -1.5986518      18144.906    
    363000   1.0086737      0.0023323615   0.0047592136   20.290458      18.792578      1.4978804     -1.6294356      18095.671    
    364000   0.98950472     0.0023323615  -0.002261815    20.090404      18.62099       1.4694145     -1.8410241      18231.119    
    365000   0.92264073     0.0023323615  -0.0016628937   20.251771      18.881649      1.3701215     -1.6730101      18173.569    
    366000   1.0222162      0.0023323615   0.00083077832  20.300171      18.78218       1.517991      -1.7368708      18056.264    
    367000   0.87602467     0.0023323615   0.0017180363   20.201219      18.900322      1.3008966     -1.5759522      18603.712    
    368000   0.85484038     0.0023323615   0.0035644399   20.318343      19.048905      1.269438      -1.5731108      18712.698    
    369000   1.0035289      0.0023323615   0.000943051    20.322297      18.832056      1.4902405     -1.6296147      18718.348    
    370000   1.0085101      0.0023323615  -0.001380095    20.239137      18.7415        1.4976375     -1.7005337      18620.586    
    371000   1.0503879      0.0023323615   0.0014905068   20.278659      18.718833      1.5598261     -1.8737759      18579.655    
    372000   0.96135186     0.0023323615  -0.0039762215   20.284164      18.856557      1.4276075     -1.6556735      18507.539    
    373000   0.85590005     0.0023323615  -0.0008433821   20.067873      18.796861      1.2710116     -1.7083485      18559.524    
    374000   0.77202008     0.0023323615  -0.0040841666   20.134324      18.987874      1.1464498     -1.5193868      18197.807    
    375000   0.98699978     0.0023323615  -0.0020086056   20.276923      18.811228      1.4656947     -1.6576663      18269.641    
    376000   1.0120058      0.0023323615  -0.0003001924   20.220303      18.717474      1.5028287     -1.7338617      18104.674    
    377000   1.033489       0.0023323615  -0.00025716055  20.227611      18.69288       1.5347311     -1.8516071      18276.827    
    378000   0.95837849     0.0023323615   8.9327277e-05  20.19085       18.767658      1.4231921     -1.8318189      18212.59     
    379000   1.1514919      0.0023323615   0.0022552948   20.357356      18.64739       1.7099654     -1.8065379      18117.135    
    380000   1.0004772      0.0023323615  -0.0030290993   20.295593      18.809884      1.4857087     -1.6466641      18112.891    
    381000   0.99332367     0.0023323615   0.0004160603   20.229219      18.754133      1.4750857     -1.7034352      18123.208    
    382000   0.9334063      0.0023323615  -0.0028470492   20.001108      18.615         1.3861084     -1.9131913      18074.859    
    383000   1.0205211      0.0023323615  -0.0021568822   20.323489      18.808016      1.5154738     -1.739193       18199.346    
    384000   0.9894685      0.0023323615   0.0064918451   20.015567      18.546206      1.4693607     -1.9955904      18170.671    
    385000   0.98291383     0.0023323615   0.0012365604   20.037621      18.577994      1.459627      -1.8705091      18288.374    
    386000   0.9387202      0.0023323615  -0.0043654224   20.273118      18.879118      1.3939995     -1.7081157      18368.123    
    387000   1.1045226      0.0023323615   0.0061769576   20.512417      18.872201      1.6402161     -1.7075834      18324.868    
    388000   0.98760467     0.0023323615  -0.0011260068   20.263534      18.796941      1.4665929     -1.6820884      18289.858    
    389000   0.96358492     0.0023323615   0.00063757729  20.470037      19.039114      1.4309236     -1.4153839      18333.036    
    390000   1.1014115      0.0023323615  -8.7580553e-05  20.533487      18.897891      1.6355961     -1.6084136      18360.123    
    391000   0.88119984     0.0023323615  -0.000808018    20.169323      18.860742      1.3085818     -1.6224188      18288.206    
    392000   1.0037206      0.0023323615   0.0027109397   20.229175      18.73865       1.490525      -1.8097271      18201.228    
    393000   1.0273683      0.0023323615   0.00012056562  20.171189      18.645547      1.5256419     -1.9156294      18122.543    
    394000   1.1316096      0.0023323615   0.00049212628  20.438508      18.758068      1.6804403     -1.6915449      18214.388    
    395000   1.2058771      0.0023323615   0.0023332972   20.843047      19.052319      1.7907275     -1.445956       18138.245    
    396000   0.96550896     0.0023323615  -0.00056833777  20.160066      18.726285      1.4337808     -1.7170819      18349.224    
    397000   1.064737       0.0023323615  -0.0031929369   20.528484      18.94735       1.5811344     -1.4853652      18510.714    
    398000   0.99851591     0.0023323615  -0.0010686273   20.423294      18.940498      1.4827961     -1.5453987      18453.582    
    399000   0.94049097     0.0023323615   0.00095423923  20.28791       18.891281      1.3966291     -1.6331887      18410.337    
    400000   0.85487479     0.0023323615   0.0016862516   19.937976      18.668487      1.2694891     -1.7706922      18179.763    
    401000   1.0748948      0.0023323615  -0.0024629807   20.564776      18.968558      1.5962187     -1.5913709      18092.512    
    402000   1.0979649      0.0023323615  -0.00056967833  20.338025      18.707547      1.6304778     -1.815511       18346.714    
    403000   0.9640317      0.0023323615  -0.0014270209   19.855224      18.423637      1.4315871     -1.988674       18253.157    
    404000   0.99271986     0.0023323615  -0.0048350889   20.532085      19.057896      1.474189      -1.4980621      18338.462    
    405000   1.091427       0.0023323615  -0.0039631865   20.594775      18.974006      1.6207691     -1.5576431      18331.558    
    406000   1.2249536      0.0023323615  -0.0014718969   20.912533      19.093476      1.8190562     -1.481873       18208.367    
    407000   0.96840082     0.0023323615   0.0067755667   20.397201      18.959126      1.4380752     -1.6520882      18264.864    
    408000   0.99904743     0.0023323615  -0.0019686911   20.462315      18.978729      1.4835854     -1.6739239      18278.705    
    409000   1.1188692      0.0023323615   0.0083947612   20.376269      18.714748      1.6615207     -1.8086708      18343.366    
    410000   1.0519321      0.0023323615   0.0032164735   20.338308      18.776189      1.5621192     -1.7032468      18258.118    
[...]
    861000   1.112971       0.0023323615   0.0018902621   20.514615      18.861853      1.652762      -1.6543665      18216.226    
    862000   0.91089374     0.0023323615   0.00054940021  20.276558      18.923881      1.3526772     -1.5062597      18357.512    
    863000   1.0179939      0.0023323615  -0.00089277531  20.562543      19.050822      1.511721      -1.4524087      18259.13     
    864000   1.0705534      0.0023323615   0.0041915256   20.220729      18.630957      1.5897719     -1.7926813      18200.674    
    865000   1.0319006      0.0023323615   0.0013688198   20.433232      18.90086       1.5323724     -1.5506267      18289.547    
    866000   1.1805243      0.0023323615   0.00036086406  20.602433      18.849354      1.7530785     -1.7356837      18346.735    
    867000   1.0066515      0.0023323615   0.0020313223   20.410932      18.916055      1.4948775     -1.6270489      18355.311    
    868000   1.0312967      0.0023323615   0.0031251709   20.335806      18.80433       1.5314756     -1.6609069      18466.135    
    869000   0.99909091     0.0023323615   0.0008500772   20.307602      18.823952      1.48365       -1.642137       18332.952    
    870000   1.0219599      0.0023323615  -0.00046278258  20.190886      18.673276      1.5176105     -1.8576477      18250.41     
    871000   0.83565233     0.0023323615  -0.0023505342   20.013679      18.772735      1.2409437     -1.7592642      18242.528    
    872000   1.0332517      0.0023323615   0.0037351198   20.414026      18.879647      1.5343787     -1.6148911      18288.256    
    873000   1.0655133      0.0023323615  -0.0012655397   20.636225      19.053938      1.5822873     -1.6050587      18352.5      
    874000   1.1404795      0.0023323615  -0.00047566387  20.518067      18.824455      1.6936121     -1.7510635      18231.525    
    875000   1.049          0.0023323615   0.00051435645  20.547553      18.989788      1.5577649     -1.5758708      18197.82     
    876000   0.99612271     0.0023323615  -0.0019058906   20.365086      18.885843      1.4792422     -1.6259397      18157.42     
    877000   1.0984582      0.0023323615  -0.0016398069   20.699176      19.067966      1.6312105     -1.4808661      18308.948    
    878000   1.0488036      0.0023323615  -0.0040244746   20.639844      19.082371      1.5574734     -1.388973       18302.589    
    879000   1.036889       0.0023323615   0.00053501115  20.701565      19.161785      1.5397801     -1.3336541      18381.465    
    880000   0.97307661     0.0023323615   0.0021878675   20.49648       19.051461      1.4450188     -1.5297196      18351.207    
    881000   1.0387341      0.0023323615   0.0010207797   20.358303      18.815783      1.5425201     -1.7131347      18372.962    
    882000   1.0806286      0.0023323615   6.3078288e-05  20.448642      18.843909      1.6047335     -1.7235855      18342.328    
    883000   0.9482731      0.0023323615   0.00037600637  20.324021      18.915835      1.4081856     -1.703273       18177.088    
    884000   0.87726464     0.0023323615   0.00048065692  19.874784      18.572046      1.302738      -1.829825       18292.04     
    885000   0.95079926     0.0023323615  -0.0017982309   20.183616      18.771679      1.4119369     -1.7048016      18596.44     
    886000   1.0988923      0.0023323615  -0.0056108484   20.813602      19.181747      1.631855      -1.3963608      18674.183    
    887000   1.0405518      0.0023323615   0.0014239944   20.5684        19.023181      1.5452194     -1.6751255      18609.709    
    888000   0.92499157     0.0023323615  -0.0041384526   19.949858      18.576246      1.3736125     -1.9221245      18455.517    
    889000   0.90181849     0.0023323615   0.00022552277  20.248552      18.909352      1.3392005     -1.5975782      18417.553    
    890000   1.0702761      0.0023323615   0.0041036589   20.242582      18.653222      1.58936       -1.7471051      18374.7      
    891000   1.0667594      0.0023323615  -0.0068549472   19.978256      18.394118      1.5841377     -2.0689161      18126.16     
    892000   0.9573412      0.0023323615   0.00042876089  20.287369      18.865717      1.4216517     -1.6219224      18140.006    
    893000   1.0200926      0.0023323615   0.0019653937   20.43683       18.921993      1.5148375     -1.5189701      18247.103    
    894000   0.93444489     0.0023323615   0.00020537329  20.466863      19.079212      1.3876507     -1.4655052      18302.566    
    895000   0.91067796     0.0023323615   0.00095595309  20.174878      18.822521      1.3523568     -1.7588632      18373.364    
    896000   0.89330033     0.0023323615  -4.8134941e-05  20.346934      19.020383      1.326551      -1.5581297      18308.666    
    897000   1.0451165      0.0023323615   0.0010870653   20.483196      18.931198      1.5519981     -1.5179633      18289.567    
    898000   1.0887174      0.0023323615   0.0010058235   20.450609      18.833864      1.6167453     -1.8049904      18278.544    
    899000   1.0222326      0.0023323615   0.0051711328   20.559722      19.041707      1.5180154     -1.5442139      18209.576    
    900000   1.0254137      0.0023323615  -0.0019311837   20.102178      18.579438      1.5227394     -1.9194561      18246.493    
    901000   0.8415285      0.0023323615   0.0031198736   20.167723      18.918053      1.2496698     -1.6280648      18229.251    
    902000   1.0716848      0.0023323615   0.0023877794   20.669587      19.078135      1.591452      -1.5043441      17996.251    
    903000   1.1879866      0.0023323615   0.0028564869   20.339623      18.575463      1.76416       -1.9910065      18303.556    
    904000   1.0201576      0.0023323615   0.0014988241   20.298122      18.783188      1.514934      -1.6839832      18100.987    
    905000   1.0282824      0.0023323615   0.0023536802   20.293314      18.766315      1.5269994     -1.8492659      18185.36     
    906000   0.89811224     0.0023323615  -0.00076087897  20.251464      18.917767      1.3336967     -1.7057776      18128.478    
    907000   0.97553856     0.0023323615   0.0032848458   20.312969      18.864294      1.4486748     -1.6296562      18096.045    
    908000   1.0136115      0.0023323615  -0.0036167636   20.282354      18.777141      1.5052131     -1.7514656      18211.749    
    909000   0.99576938     0.0023323615   0.0008179711   20.252098      18.773381      1.4787175     -1.7260681      18257.985    
    910000   0.98627471     0.0023323615   0.00050142218  20.362058      18.89744       1.464618      -1.724419       18193.392    
    911000   0.95850154     0.0023323615   0.00066792856  20.535914      19.112539      1.4233748     -1.4150645      18297.905    
    912000   0.96274839     0.0023323615  -0.00054254189  20.234782      18.805101      1.4296814     -1.780941       18294.417    
    913000   0.86122501     0.0023323615  -0.00012401378  20.073615      18.794696      1.2789191     -1.6315951      18304.818    
    914000   1.0094716      0.0023323615   0.0010102282   20.03455       18.535485      1.4990653     -1.8499766      18302.176    
    915000   0.98575908     0.0023323615  -0.0029151713   20.197949      18.734097      1.4638522     -1.7138253      18017.637    
    916000   0.90500801     0.0023323615   0.0006225721   20.001627      18.65769       1.3439369     -1.7738479      18112.194    
    917000   1.0355632      0.0023323615  -0.00062639621  20.397518      18.859706      1.5378114     -1.6793407      18132.301    
    918000   0.86220225     0.0023323615   0.0033932102   20.051463      18.771093      1.2803703     -1.6696319      18186.752    
    919000   1.0825626      0.0023323615  -0.0001450042   20.411299      18.803694      1.6076055     -1.6910962      18229.401    
    920000   1.0872742      0.0023323615   0.0022420115   20.500861      18.886259      1.6146022     -1.6847334      18151.261    
    921000   0.97736421     0.0023323615   0.0035733052   20.510067      19.058682      1.4513858     -1.5039893      18305.107    
    922000   1.1653263      0.0023323615   0.00117008     20.77594       19.045431      1.7305095     -1.5080139      18377.268    
    923000   1.0098461      0.0023323615  -0.00032499281  20.465495      18.965874      1.4996214     -1.5416792      18351.454    
    924000   1.2252957      0.0023323615  -0.0013996795   20.412851      18.593287      1.8195641     -1.9269987      18203.578    
    925000   0.99711231     0.0023323615  -0.0023132415   20.369502      18.88879       1.4807118     -1.6975932      18175.128    
    926000   0.87220636     0.0023323615  -0.0033418287   20.015844      18.720618      1.2952264     -1.7410537      18196.878    
    927000   1.0278013      0.0023323615  -0.0033514175   20.031052      18.504767      1.5262849     -1.9534932      18148.258    
    928000   0.94055942     0.0023323615  -0.003307785    20.278194      18.881463      1.3967307     -1.6037745      18216.05     
    929000   1.1015123      0.0023323615  -7.9206052e-05  20.108239      18.472493      1.6357457     -1.9088851      18160.475    
    930000   0.95356042     0.0023323615  -0.0037953481   20.340776      18.924739      1.4160372     -1.63914        18161.781    
    931000   1.053327       0.0023323615  -0.0010343068   20.342976      18.778786      1.5641905     -1.7378619      18056.146    
    932000   0.90183998     0.0023323615  -0.0009166871   20.057357      18.718124      1.3392324     -1.7262588      18109.562    
    933000   0.9909299      0.0023323615  -0.0017830576   20.172252      18.700721      1.4715309     -1.8449672      18143.742    
    934000   0.92320686     0.0023323615  -0.0034664958   20.180496      18.809534      1.3709622     -1.8363426      18098.023    
    935000   1.1482789      0.0023323615   0.0027698711   20.436218      18.731024      1.7051942     -1.9641677      18175.81     
    936000   0.99645298     0.0023323615  -0.0027598407   20.655781      19.176048      1.4797327     -1.4264993      18166.094    
    937000   0.95576944     0.0023323615   0.0026886408   20.328467      18.90915       1.4193176     -1.6408824      18208.333    
    938000   0.89015615     0.0023323615  -0.0033692971   20.262306      18.940424      1.3218819     -1.6736027      18178.372    
    939000   0.97739346     0.0023323615  -0.0015741934   20.094259      18.642829      1.4514293     -1.7705094      18138.008    
    940000   1.1472127      0.0023323615  -0.00087314452  20.714363      19.010752      1.7036109     -1.5984326      18223.526    
    941000   0.93076578     0.0023323615  -0.0030207561   20.036773      18.654586      1.3821872     -1.7734098      18242.761    
    942000   1.1644795      0.0023323615   0.0055975874   20.369555      18.640303      1.7292521     -1.8800499      18146.457    
    943000   0.97665285     0.0023323615   0.00034486946  20.676147      19.225818      1.4503295     -1.3006913      18213.57     
    944000   1.0222541      0.0023323615   0.0011438212   20.368504      18.850457      1.5180473     -1.6154428      18218.188    
    945000   0.98116593     0.0023323615   0.0021323454   20.458831      19.0018        1.4570314     -1.49412        18224.601    
    946000   1.0182059      0.0023323615  -0.0031198957   20.5567        19.044664      1.5120358     -1.4106538      18361.848    
    947000   1.1044544      0.0023323615  -0.001704204    20.583435      18.94332       1.6401148     -1.5085128      18270.086    
    948000   0.99272433     0.0023323615  -0.0044766102   20.658243      19.184047      1.4741956     -1.4482774      18186.643    
    949000   1.1393404      0.0023323615  -0.0032953102   20.708466      19.016546      1.6919205     -1.5384842      18287.714    
    950000   1.1381333      0.0023323615  -0.0053333399   20.574432      18.884304      1.6901279     -1.5780568      18237.251    
    951000   1.1494746      0.0023323615   0.0016076673   20.743292      19.036323      1.7069698     -1.4684272      18244.605    
    952000   1.1696089      0.0023323615  -0.0015464453   20.425201      18.688332      1.7368692     -1.7259883      18210.168    
    953000   1.0171689      0.0023323615  -0.00066165666  20.287789      18.777293      1.5104958     -1.6380192      18194.277    
    954000   0.91613048     0.0023323615   0.0062093616   20.376715      19.016261      1.3604538     -1.5969972      18347.446    
    955000   0.9767082      0.0023323615  -0.0018182839   20.154603      18.704191      1.4504117     -1.8382245      18297.107    
    956000   0.93331678     0.0023323615  -0.0020828492   20.186574      18.800598      1.3859754     -1.7727933      18163.532    
    957000   1.004224       0.0023323615   0.0036903009   20.305657      18.814385      1.4912726     -1.6581461      18316.064    
    958000   0.98564502     0.0023323615   0.0023780502   20.461638      18.997955      1.4636829     -1.4980664      18263.554    
    959000   0.95580078     0.0023323615   0.00078023917  20.325023      18.905659      1.4193642     -1.5749828      18339.764    
    960000   1.0715945      0.0023323615   0.0016337776   20.3699        18.778582      1.5913179     -1.7609778      18341.559    
    961000   0.98358758     0.0023323615  -0.0010024371   20.095743      18.635116      1.4606276     -1.9923777      18232.128    
    962000   1.1271394      0.0023323615   0.0019749264   20.490871      18.817069      1.673802      -1.7188451      18134.68     
    963000   1.0397604      0.0023323615   0.00039700773  20.270013      18.725969      1.5440442     -1.8408952      18229.178    
    964000   1.0718929      0.0023323615  -0.0014606033   20.239635      18.647874      1.5917609     -1.841903       18319.328    
    965000   0.84675435     0.0023323615   3.1532282e-05  19.743061      18.485631      1.2574302     -1.8822283      18225.36     
    966000   0.96489996     0.0023323615   7.8582539e-05  20.078526      18.645649      1.4328764     -1.8098894      18295.091    
    967000   0.9601109      0.0023323615   0.00076929243  20.246534      18.820769      1.4257647     -1.7101142      18233.953    
    968000   1.0596159      0.0023323615  -0.0023160435   20.334587      18.761058      1.5735296     -1.712505       18259.735    
    969000   0.93895456     0.0023323615  -0.0043976695   20.427132      19.032785      1.3943475     -1.4564862      18255.47     
    970000   0.92809983     0.0023323615  -0.0037899662   20.376034      18.997805      1.3782282     -1.5114593      18276.124    
    971000   0.93251653     0.0023323615   0.0024494663   20.411769      19.026981      1.384787      -1.557032       18187.945    
    972000   0.9350201      0.0023323615  -0.0044660081   20.539896      19.151391      1.3885048     -1.4510134      18325.571    
    973000   0.89223341     0.0023323615  -0.0025709684   20.005003      18.680037      1.3249666     -1.789395       18281.886    
    974000   1.0201215      0.0023323615   0.00071076785  20.300568      18.785687      1.5148804     -1.7017019      18195.176    
    975000   1.0534928      0.0023323615  -0.0052687886   20.553275      18.988838      1.5644368     -1.5739981      18316.874    
    976000   1.1176553      0.0023323615   0.0039565489   20.568815      18.909097      1.6597182     -1.605831       18254.796    
    977000   1.0814624      0.0023323615  -0.0021915209   20.618196      19.012225      1.6059717     -1.6196883      18139.211    
    978000   0.93435797     0.0023323615   0.0020911736   20.153619      18.766097      1.3875216     -1.7098483      17976.542    
    979000   0.97199813     0.0023323615  -0.0020065475   20.70297       19.259553      1.4434172     -1.2236571      18233.144    
    980000   0.95672425     0.0023323615  -0.0026006404   20.507101      19.086365      1.4207355     -1.4517301      18427.842    
    981000   0.9636047      0.0023323615   0.0002250587   20.289769      18.858816      1.430953      -1.6142292      18391.981    
    982000   0.9334509      0.0023323615   0.0028929074   20.109951      18.723777      1.3861746     -1.701496       18228.339    
    983000   0.9971306      0.0023323615   0.000285463    20.39534       18.914601      1.4807389     -1.6613164      18256.759    
    984000   0.90334289     0.0023323615  -0.00056344267  19.939334      18.59787       1.3414642     -1.7752139      18221.564    
    985000   0.9658247      0.0023323615   7.8559425e-05  20.494494      19.060244      1.4342497     -1.5086794      18262.514    
    986000   0.9300913      0.0023323615  -0.0020936214   20.199058      18.817872      1.3811856     -1.5518664      18283.272    
    987000   0.83657674     0.0023323615   0.00038850409  20.079433      18.837116      1.2423165     -1.6142271      18334.851    
    988000   0.92964544     0.0023323615  -0.00090829381  20.215866      18.835343      1.3805235     -1.6460125      18230.377    
    989000   0.92378131     0.0023323615   0.0010286072   20.193378      18.821563      1.3718152     -1.7412297      18200.485    
    990000   1.0113691      0.0023323615   0.0017053677   20.409723      18.90784       1.5018831     -1.6890422      18180.62     
    991000   1.0154748      0.0023323615   0.0036690294   20.544117      19.036137      1.5079801     -1.5836377      18206.069    
    992000   1.0739643      0.0023323615  -0.0042890693   20.434166      18.83933       1.5948369     -1.8122922      18228.901    
    993000   1.0298422      0.0023323615   0.0028585302   20.31132       18.782004      1.5293157     -1.8082826      18254.772    
    994000   1.09174        0.0023323615   0.0012717061   20.415458      18.794224      1.6212339     -1.7259293      18204.283    
    995000   1.086364       0.0023323615  -0.0018346166   20.231444      18.618193      1.6132506     -1.8501301      18254.428    
    996000   1.0176288      0.0023323615   0.0033462285   20.019937      18.508758      1.5111787     -1.9690142      18233.906    
    997000   0.98001168     0.0023323615   2.6153549e-05  20.225189      18.769872      1.4553174     -1.6838872      18232.388    
    998000   0.99785094     0.0023323615   0.00052401393  20.043904      18.562095      1.4818087     -1.883637       18223.004    
    999000   1.0189352      0.0023323615  -0.0008629015   20.391453      18.878335      1.5131188     -1.5999814      18274.254    
   1000000   0.90129622     0.0023323615   0.0017458068   20.249307      18.910882      1.3384249     -1.7264814      18513.906    
Loop time of 54.6732 on 1 procs for 1000000 steps with 100 atoms

Performance: 7901501.289 tau/day, 18290.512 timesteps/s
99.4% CPU use with 1 MPI tasks x 1 OpenMP threads

MPI task timing breakdown:
Section |  min time  |  avg time  |  max time  |%varavg| %total
---------------------------------------------------------------
Pair    | 45.696     | 45.696     | 45.696     |   0.0 | 83.58
Bond    | 1.2641     | 1.2641     | 1.2641     |   0.0 |  2.31
Neigh   | 3.7925     | 3.7925     | 3.7925     |   0.0 |  6.94
Comm    | 1.3949     | 1.3949     | 1.3949     |   0.0 |  2.55
Output  | 0.20999    | 0.20999    | 0.20999    |   0.0 |  0.38
Modify  | 1.9605     | 1.9605     | 1.9605     |   0.0 |  3.59
Other   |            | 0.3554     |            |       |  0.65

Nlocal:            100 ave         100 max         100 min
Histogram: 1 0 0 0 0 0 0 0 0 0
Nghost:            328 ave         328 max         328 min
Histogram: 1 0 0 0 0 0 0 0 0 0
Neighs:           4851 ave        4851 max        4851 min
Histogram: 1 0 0 0 0 0 0 0 0 0

Total # of neighbors = 4851
Ave neighs/atom = 48.51
Ave special neighs/atom = 1.98
Neighbor list builds = 97834
Dangerous builds = 79599

write_data      ${outputfile_assembled} nofix nocoeff
write_data      7_assembled.data nofix nocoeff
System init for write_data ...
Generated 0 of 6 mixed pair_coeff terms from geometric mixing rule

Total wall time: 0:00:56
