ITEM: TIMESTEP
0
ITEM: NUMBER OF ATOMS
200
ITEM: BOX BOUNDS pp pp pp
-5.1114066999999999e+01 4.8885933000000001e+01
-4.9396211999999998e+01 5.0603788000000002e+01
-5.2290295999999998e+01 4.7709704000000002e+01
ITEM: ATOMS id type xu yu zu vx vy vz
1 1 -1.70718 4.29459 -6.26195 -0.776093 1.22601 -0.402198
2 1 -1.05485 3.70235 -5.93776 0.677407 -0.647429 -0.102579
3 1 -0.259918 4.13657 -5.6657 0.627809 0.336949 0.711186
4 1 0.609095 3.52932 -5.67675 -0.781561 0.959654 3.19503
5 1 0.380356 2.81039 -5.07613 -1.62331 -0.187976 0.574194
6 1 -0.389335 2.44326 -4.70878 1.25086 -0.67116 0.53843
7 1 0.417199 2.17666 -4.17255 0.140994 0.233413 0.910575
8 1 0.43564 2.1345 -3.18649 -1.12372 0.203044 -2.1733
9 1 -0.412766 2.08435 -2.72008 -0.624102 0.765993 1.22776
10 1 -1.25766 1.55469 -2.94521 0.136757 -1.07353 0.667907
11 1 -1.91192 1.18336 -2.24249 0.47047 2.06629 -0.0871079
12 1 -2.26172 0.368645 -1.85314 -0.505704 1.01428 1.57019
13 1 -2.88445 -0.352041 -1.96054 0.638076 -2.16405 1.4352
14 1 -3.71954 0.158426 -1.95098 -1.06102 -1.09112 0.894995
15 1 -3.65503 -0.517432 -2.60058 0.903127 1.91113 1.10198
16 1 -2.91167 -0.849688 -3.14904 0.504569 0.689561 -0.671081
17 1 -2.11894 -0.757565 -2.63133 0.0989534 0.439075 -0.446891
18 1 -1.69195 -0.680857 -3.46505 -1.08926 2.54724 -0.173571
19 1 -0.769359 -0.875146 -3.32589 0.539703 1.05108 0.0563733
20 1 0.0166763 -0.907862 -3.9853 0.788506 -1.61109 -1.10714
21 1 0.326253 -1.71578 -4.26774 -0.623619 0.931687 -0.519926
22 1 0.203525 -2.50281 -3.71414 -0.74178 -0.2874 0.594852
23 1 -0.299297 -2.64405 -2.86592 -0.291922 0.472548 -0.41246
24 1 -0.795529 -3.39463 -2.54082 -0.644584 -0.826667 -0.585852
25 1 -0.805042 -3.51036 -1.59416 -0.70895 1.56497 -2.39681
26 1 -0.838753 -2.57089 -1.25697 -1.53704 -0.0711934 0.256105
27 1 -0.743437 -1.57795 -1.18902 0.367412 1.19025 -1.08747
28 1 -1.05713 -1.54805 -0.257695 1.31333 0.747947 0.106454
29 1 -1.43267 -0.721943 0.243222 -1.09592 -1.42704 0.00633095
30 1 -0.850846 -0.143577 -0.239963 2.08168 0.0492016 -0.922809
31 1 -1.82285 -0.110061 -0.406335 -1.09614 0.382579 0.242402
32 1 -1.62207 0.829541 -0.479208 -1.0841 0.174293 0.529421
33 1 -1.7226 0.648836 0.485444 1.44595 0.318968 1.6637
34 1 -1.69119 0.63558 1.45489 0.0164765 1.31926 -0.230211
35 1 -2.08071 1.47345 1.85902 1.51775 -1.4423 0.0459494
36 1 -1.38844 2.07318 1.51854 -0.352259 0.330084 -1.15416
37 1 -1.41945 2.98642 1.77703 -1.16599 -0.961315 0.817741
38 1 -1.64727 3.85338 1.37863 -0.804389 -0.418659 -0.504745
39 1 -2.53515 3.60101 1.59311 -0.394551 -0.557386 1.14518
40 1 -3.42506 3.32635 1.87857 0.449608 1.21834 0.437703
41 1 -3.99058 3.83095 1.31565 -0.546218 -1.47063 -0.191978
42 1 -4.74514 3.77816 0.749192 1.09782 0.102552 0.600034
43 1 -5.51373 3.68844 1.2698 -0.233522 0.917071 0.950296
44 1 -4.95076 3.7147 2.01157 -1.28999 0.679934 0.45234
45 1 -5.27801 4.5162 2.57152 0.939371 -0.242146 -0.141563
46 1 -5.99218 3.82392 2.52882 0.625664 -0.882512 0.504835
47 1 -6.1011 4.53108 1.80124 0.947111 -0.340121 0.424584
48 1 -5.54161 5.36794 1.7992 -1.33364 -2.32454 -0.512845
49 1 -4.96077 5.65358 0.998621 -1.23289 1.29829 -0.503692
50 1 -5.12441 6.59238 0.890022 1.72252 0.724242 -0.256454
51 1 -5.89099 7.09277 0.553528 -0.581143 -0.908867 -1.14806
52 1 -6.38209 7.44578 1.31345 -0.177378 -0.207913 -0.0377328
53 1 -6.07575 8.3844 1.36232 1.34229 0.157519 1.14352
54 1 -5.76213 8.36585 2.30587 1.20326 0.202379 -2.04848
55 1 -5.56653 9.21718 1.9611 -1.00775 1.16897 -1.25373
56 1 -5.9791 10.1186 2.07016 0.280199 1.31072 -0.141656
57 1 -5.48446 10.4801 1.27842 -0.242965 0.593087 -0.241468
58 1 -4.72781 10.8874 0.916385 -1.25009 0.326188 -1.98823
59 1 -4.47082 11.7669 1.37947 -1.40805 -0.232797 0.985414
60 1 -5.44696 11.8712 1.25041 -0.292863 0.0916825 0.0566139
61 1 -6.35137 12.0804 1.4691 0.398646 0.528444 0.0266383
62 1 -6.03656 12.9302 1.7445 1.43661 -0.618157 0.87531
63 1 -6.44947 13.0727 2.5665 1.81131 -0.657651 0.458154
64 1 -6.22569 12.5235 3.34194 -0.59794 0.442178 0.69419
65 1 -6.14254 11.6881 3.83084 0.673385 0.299937 0.427491
66 1 -6.18815 12.2882 4.61923 2.37758 -1.33529 -0.839837
67 1 -5.46015 12.2735 5.31225 -0.20675 -0.632967 -0.203606
68 1 -5.6605 12.1809 6.31908 -0.396551 0.227921 -0.411754
69 1 -6.40714 12.7247 6.61645 -0.402452 -0.465199 -1.44277
70 1 -6.25468 13.1423 7.54761 -1.95214 1.34002 -0.834829
71 1 -6.0665 13.4432 8.4479 -0.0282909 -0.245302 -0.21053
72 1 -6.53766 14.1592 8.12053 0.668517 1.48374 0.0450567
73 1 -7.21269 14.7321 8.65701 -0.855626 1.00097 1.17266
74 1 -7.15954 15.6359 8.85955 1.27096 0.262472 -0.662379
75 1 -7.45071 16.1008 8.08892 0.437409 -0.662681 0.222784
76 1 -7.53808 16.6481 8.86638 0.422793 0.81159 -0.176206
77 1 -7.47795 17.2913 9.53172 -0.578909 -0.225009 1.00063
78 1 -7.29503 16.5409 10.0947 0.88483 -1.24203 0.741773
79 1 -8.10512 16.0927 10.5731 -0.721723 -1.64198 1.15899
80 1 -8.27351 17.0415 10.3286 1.79685 -0.681573 -0.0126557
81 1 -9.17608 16.7174 10.3289 -1.82046 0.765631 0.230042
82 1 -9.73248 17.4807 10.1944 -0.833399 -1.22317 -0.977126
83 1 -9.86334 17.3222 11.1545 -0.85304 0.178251 1.25164
84 1 -9.007 16.9651 11.4834 1.39932 -1.03967 -0.450424
85 1 -9.16402 17.6796 12.1213 0.265509 0.355977 -0.0057217
86 1 -8.65754 17.8723 12.9113 -0.523682 0.748537 0.0603675
87 1 -8.0272 17.7156 13.6076 -1.68549 1.2276 -1.13153
88 1 -8.72523 18.1453 14.2394 0.21127 -1.3396 0.320157
89 1 -8.55024 18.9314 14.7559 0.388775 -0.325187 0.389218
90 1 -8.67324 18.2913 15.5283 -0.310795 1.5611 -0.250747
91 1 -9.51383 18.0138 16.019 -0.707802 -0.451091 0.0384629
92 1 -9.4181 17.0998 16.4551 1.84978 -0.252924 1.2975
93 1 -8.54886 17.1219 16.951 -0.79789 0.207007 0.801695
94 1 -9.36471 17.0125 17.4117 -0.872931 -0.295655 0.900853
95 1 -10.1021 16.6399 18.024 0.769292 -0.281006 0.675746
96 1 -9.73873 16.4273 18.9148 0.60099 -1.02979 0.241114
97 1 -10.1851 15.6205 18.8982 -2.49057 1.87607 0.582833
98 1 -9.37913 15.1028 18.9155 0.0187952 1.2595 -0.480945
99 1 -10.1115 14.445 19.078 0.957365 1.97579 0.0265289
100 1 -10.8007 14.6888 18.4193 -0.798729 -0.389769 0.654765
101 1 -2.61815 4.34024 -6.59119 1.4815 -0.0144539 0.641427
102 1 -2.74385 3.73792 -5.88013 -2.23165 0.52134 0.294337
103 1 -3.17194 3.97448 -5.1128 -0.590842 -1.74329 -0.448945
104 1 -3.8314 3.26935 -5.15846 -0.676537 1.20007 0.379587
105 1 -4.33875 3.28941 -6.01229 1.13703 1.30781 1.37069
106 1 -3.59815 3.42206 -6.64322 1.10353 0.570424 0.568842
107 1 -3.89331 3.84942 -7.40725 1.79688 2.20535 0.318057
108 1 -4.35034 4.61922 -7.82406 0.0715996 1.45423 0.0251785
109 1 -3.99791 5.41231 -7.34184 -0.181313 -0.120255 0.932891
110 1 -4.71801 4.93897 -6.87476 -1.67148 -0.552964 -1.4877
111 1 -5.00802 4.14091 -6.4003 -0.472932 -0.744362 -0.850033
112 1 -5.84094 4.54055 -6.69391 0.757157 -0.623667 -0.863768
113 1 -6.69544 4.71 -7.03872 -2.18206 -0.713678 -0.208235
114 1 -7.06229 3.88634 -6.8209 -0.310023 -0.117948 -1.88096
115 1 -7.922 3.54201 -6.51422 0.570298 -1.03759 -0.475298
116 1 -8.44898 2.92724 -6.00777 0.882981 -1.54578 -0.000726277
117 1 -8.02466 2.38586 -6.6315 0.0250144 2.04136 -1.10237
118 1 -8.29686 1.47871 -6.65171 -0.186178 1.59966 -0.598938
119 1 -7.39947 1.31641 -6.84423 -0.243003 0.344471 2.58955
120 1 -6.419 1.33431 -6.91256 -0.462345 -1.44878 -1.99269
121 1 -5.44566 1.2524 -7.07027 1.29452 -0.0384751 -1.43574
122 1 -5.66111 1.94733 -7.75858 -0.962177 -1.15458 -0.961165
123 1 -6.39674 1.39663 -8.03856 0.505999 -0.103272 0.647453
124 1 -6.12869 0.594792 -8.52817 0.567304 0.587313 1.5804
125 1 -5.40349 1.20403 -8.81789 -0.475294 1.23401 -0.356597
126 1 -4.47584 1.49101 -8.99619 0.339303 1.64869 -0.711507
127 1 -3.97253 1.61411 -8.21751 1.00339 -1.09724 0.286753
128 1 -3.88494 1.4624 -7.24679 0.337178 1.02464 -1.40334
129 1 -3.75619 0.612229 -7.765 -0.179317 -0.64377 -1.86321
130 1 -3.45996 -0.289928 -7.96721 1.82334 -1.56869 0.254046
131 1 -2.64337 -0.765125 -7.86261 1.10534 0.527815 0.970008
132 1 -3.20703 -1.44408 -7.59388 -0.312071 -0.986124 0.287359
133 1 -2.47693 -1.70888 -7.05855 1.15432 -0.763797 -0.443046
134 1 -1.86434 -2.42231 -7.14453 1.35386 1.0985 -0.789951
135 1 -1.71494 -2.46069 -8.13384 -0.653761 -1.38282 -0.464695
136 1 -2.54884 -2.91245 -8.34378 -1.14278 -1.24367 0.769654
137 1 -3.29839 -2.28323 -8.32883 0.49677 -1.39819 -0.58158
138 1 -3.6055 -2.24699 -9.21732 -0.00961578 1.17063 -0.972224
139 1 -3.63534 -2.59687 -10.0796 0.673199 -1.664 1.68515
140 1 -2.88288 -1.99285 -9.97732 -0.580412 -0.613352 -0.929281
141 1 -2.051 -1.71043 -9.46753 0.429658 -0.124519 -0.559717
142 1 -1.22321 -2.12773 -9.67925 2.02434 -1.44977 -0.409959
143 1 -1.81236 -2.06171 -10.4305 -0.307662 1.10562 -0.688262
144 1 -1.73288 -1.23151 -10.8444 0.780284 -0.661372 -1.59805
145 1 -1.36777 -1.677 -11.6434 -1.53555 0.635793 0.15208
146 1 -0.976139 -2.55488 -11.5776 -1.14699 -0.00790724 -0.762252
147 1 -1.67231 -3.23448 -11.6358 0.308988 0.0266973 0.444851
148 1 -1.31114 -3.87023 -11.0377 -0.654371 -0.288475 1.63754
149 1 -0.937009 -3.72495 -10.1445 -1.41257 0.135903 0.0498477
150 1 -0.747722 -4.54103 -9.74504 0.578273 1.27003 2.09633
151 1 0.134258 -4.23535 -9.41273 0.840507 0.548956 0.502701
152 1 -0.368795 -3.89481 -8.66621 -0.615115 0.603489 -0.265811
153 1 -0.321724 -2.95908 -8.51211 0.869057 -1.03065 0.20377
154 1 0.522699 -2.76353 -8.07371 0.103106 -0.664722 -0.900551
155 1 0.819856 -2.7461 -8.96861 0.465279 0.225055 0.0746371
156 1 0.976945 -3.53124 -9.44613 -0.86452 -0.406145 0.319798
157 1 1.4625 -2.79785 -9.79856 -0.328787 0.053436 0.560818
158 1 1.50897 -1.87058 -9.70615 -0.146828 -0.357917 -1.1865
159 1 0.990947 -1.25648 -9.18898 -0.132058 1.72852 -0.468886
160 1 0.96422 -0.319699 -8.96071 -0.156245 1.19917 1.12763
161 1 1.8348 0.0976924 -8.95618 0.827223 0.862457 -0.0513087
162 1 1.41822 0.310685 -9.78683 -0.259247 0.21395 -1.30943
163 1 1.73611 1.19041 -9.64485 0.899426 0.102596 1.64694
164 1 1.76909 1.94876 -9.05961 -1.35255 -0.920613 -0.336443
165 1 1.66853 2.83534 -9.42064 1.05043 1.13777 1.88609
166 1 2.58742 2.9786 -9.47063 -0.695707 -0.748034 -0.524877
167 1 3.36443 2.91912 -8.93478 -0.141412 0.863895 0.674373
168 1 3.4953 2.00081 -8.96788 0.472982 0.757531 -0.355771
169 1 4.27215 2.28405 -9.59417 0.471937 -0.788398 -0.370714
170 1 4.83125 2.00453 -10.3737 -0.238802 -1.13869 0.234959
171 1 4.88141 1.334 -11.128 0.349491 -0.712075 -0.258858
172 1 5.76459 1.04088 -11.3407 -2.18591 2.25642 -1.13374
173 1 5.91596 0.464179 -10.6173 0.102897 0.636741 0.923447
174 1 5.03087 0.00773701 -10.4037 0.680643 -0.485033 0.857069
175 1 5.02073 0.0951755 -11.3755 0.484191 -0.251179 -0.709255
176 1 5.21794 -0.640776 -12.0608 0.0579524 -2.52883 0.523849
177 1 4.65249 -0.420863 -12.7827 1.01057 -0.358036 -1.28854
178 1 3.96609 -0.683692 -13.3823 0.65019 0.534423 -0.906186
179 1 4.01216 -1.62038 -13.7407 -0.790645 -1.05117 -0.189555
180 1 3.36133 -1.64346 -13.0086 0.0720295 -0.265646 -1.46889
181 1 3.07755 -2.48427 -13.4583 -1.68649 0.98213 0.225977
182 1 3.25389 -2.79695 -14.3776 -0.375851 0.110264 0.698901
183 1 3.66886 -3.52201 -14.8149 0.361459 -1.81172 0.159453
184 1 4.63238 -3.30725 -14.9735 0.455784 -0.251961 0.736486
185 1 5.2454 -2.75407 -14.4347 -0.793772 0.776387 -0.0587534
186 1 4.52887 -3.0108 -13.8533 -0.198702 -0.21512 -0.342368
187 1 5.1983 -3.45463 -13.3943 0.186276 1.8435 -0.522848
188 1 5.5484 -4.20584 -13.8399 0.870509 0.517208 -0.412837
189 1 6.53633 -4.40212 -14.003 0.618785 -0.452741 1.52878
190 1 6.73797 -3.57301 -13.464 -1.25781 -1.69162 0.483473
191 1 7.22219 -3.80935 -12.6029 -0.189772 0.406512 -0.0333931
192 1 7.0208 -4.1317 -11.7455 -0.668587 0.931025 -1.08948
193 1 7.16282 -3.77493 -10.8219 0.52173 0.374856 0.0281332
194 1 6.98074 -3.87164 -9.87775 0.331845 -0.729426 -1.54871
195 1 7.54862 -3.70235 -9.06924 -0.673028 0.638682 0.58396
196 1 8.1314 -4.49332 -8.72826 -0.818652 -0.60185 0.330926
197 1 8.64967 -4.18036 -7.96693 -0.514199 1.16716 -1.44321
198 1 8.30959 -3.25608 -7.92561 -1.74729 0.456893 -1.46392
199 1 7.97376 -2.90951 -7.04114 -0.252417 -0.269526 0.663398
200 1 7.55623 -2.93197 -6.20908 0.00519046 0.460713 0.212094
ITEM: TIMESTEP
1
ITEM: NUMBER OF ATOMS
200
ITEM: BOX BOUNDS pp pp pp
-5.1114066999999999e+01 4.8885933000000001e+01
-4.9396211999999998e+01 5.0603788000000002e+01
-5.2290295999999998e+01 4.7709704000000002e+01
ITEM: ATOMS id type xu yu zu vx vy vz
1 1 -1.71138 4.30093 -6.26411 -0.847506 1.28321 -0.436411
2 1 -1.05141 3.69882 -5.93822 0.679829 -0.736989 -0.0922864
3 1 -0.256021 4.13794 -5.6621 0.914717 0.210951 0.730507
4 1 0.604593 3.53449 -5.66074 -1.0107 1.11176 3.202
5 1 0.372668 2.80969 -5.07349 -1.41951 -0.0799777 0.466178
6 1 -0.383172 2.4396 -4.70567 1.17393 -0.81002 0.719344
7 1 0.417582 2.17791 -4.16793 0.0176043 0.267682 0.910142
8 1 0.42993 2.13552 -3.19758 -1.17092 0.203777 -2.22557
9 1 -0.416232 2.08792 -2.71411 -0.751927 0.658538 1.15531
10 1 -1.2569 1.54939 -2.94137 0.174157 -1.03935 0.860669
11 1 -1.90924 1.19382 -2.24328 0.586792 2.09593 -0.210898
12 1 -2.2642 0.373812 -1.84532 -0.490904 1.05424 1.54693
13 1 -2.88129 -0.362737 -1.95321 0.623892 -2.09001 1.50102
14 1 -3.7247 0.153088 -1.9463 -0.991057 -1.02887 1.00357
15 1 -3.6505 -0.508207 -2.59555 0.919328 1.75146 0.879716
16 1 -2.90942 -0.846177 -3.15234 0.386709 0.717851 -0.64488
17 1 -2.11846 -0.755391 -2.63324 0.0920159 0.429214 -0.310269
18 1 -1.69735 -0.668075 -3.4662 -1.04584 2.56155 -0.289798
19 1 -0.766143 -0.869929 -3.32594 0.724519 1.0396 -0.0847841
20 1 0.0198869 -0.915083 -3.9902 0.469229 -1.21235 -0.826845
21 1 0.323435 -1.71202 -4.27056 -0.481947 0.494282 -0.623635
22 1 0.199655 -2.50421 -3.71093 -0.798792 -0.258175 0.67013
23 1 -0.300554 -2.6416 -2.86829 -0.224374 0.495244 -0.523068
24 1 -0.798778 -3.39879 -2.54383 -0.647088 -0.823982 -0.649669
25 1 -0.8086 -3.5022 -1.60593 -0.71468 1.68973 -2.28235
26 1 -0.84639 -2.57122 -1.25579 -1.51614 -0.0458864 0.217763
27 1 -0.741711 -1.57236 -1.19426 0.319448 1.03572 -1.00127
28 1 -1.05071 -1.54384 -0.257096 1.25901 0.930902 0.123565
29 1 -1.43781 -0.729931 0.243344 -0.93841 -1.73168 0.0172164
30 1 -0.840631 -0.143252 -0.24468 1.95558 0.0562802 -0.946337
31 1 -1.82825 -0.107822 -0.405403 -1.03921 0.503085 0.14083
32 1 -1.62753 0.830332 -0.476297 -1.09674 0.144773 0.640736
33 1 -1.71534 0.650478 0.493608 1.45735 0.339302 1.57326
34 1 -1.69128 0.64254 1.4538 -0.0429947 1.44623 -0.188749
35 1 -2.07282 1.46599 1.85902 1.62778 -1.52396 -0.0412733
36 1 -1.39032 2.07458 1.51279 -0.401087 0.219755 -1.14752
37 1 -1.42533 2.98195 1.78107 -1.19001 -0.813197 0.798351
38 1 -1.65107 3.85115 1.37615 -0.71772 -0.482948 -0.48243
39 1 -2.53743 3.59814 1.59892 -0.498163 -0.587721 1.17355
40 1 -3.42254 3.33236 1.88086 0.547797 1.17794 0.484602
41 1 -3.99328 3.82373 1.31468 -0.51188 -1.41242 -0.180469
42 1 -4.73948 3.77871 0.751823 1.1247 0.110337 0.44763
43 1 -5.51552 3.69297 1.27443 -0.471647 0.897866 0.876934
44 1 -4.95712 3.71856 2.01449 -1.24089 0.854476 0.725521
45 1 -5.27338 4.51431 2.57048 0.907343 -0.508456 -0.265479
46 1 -5.98886 3.82009 2.53099 0.704088 -0.642514 0.363911
47 1 -6.09608 4.52938 1.80373 1.05028 -0.360768 0.570623
48 1 -5.5482 5.35612 1.7962 -1.28536 -2.38091 -0.690776
49 1 -4.96724 5.65989 0.996543 -1.35906 1.21096 -0.322639
50 1 -5.11593 6.59611 0.888682 1.65879 0.784394 -0.285353
51 1 -5.89383 7.08818 0.547936 -0.549356 -0.926856 -1.07732
52 1 -6.38283 7.44496 1.31319 -0.111325 -0.114749 -0.0757435
53 1 -6.06902 8.38491 1.36834 1.33801 0.0417529 1.23686
54 1 -5.75628 8.36658 2.29543 1.14557 0.0949436 -2.10424
55 1 -5.57165 9.22363 1.95475 -1.0402 1.40355 -1.28214
56 1 -5.97737 10.125 2.06911 0.410152 1.2389 -0.274578
57 1 -5.48621 10.4827 1.27768 -0.454731 0.464945 -0.0567032
58 1 -4.73358 10.8896 0.906525 -1.05605 0.59083 -1.95382
59 1 -4.47829 11.7653 1.38411 -1.57114 -0.411013 0.869156
60 1 -5.44804 11.8716 1.25071 -0.143877 0.0704211 0.0611101
61 1 -6.34953 12.0829 1.4692 0.330407 0.466321 0.0131265
62 1 -6.02911 12.9272 1.74853 1.54805 -0.575588 0.730417
63 1 -6.44058 13.0693 2.56933 1.73957 -0.660331 0.671755
64 1 -6.2287 12.5257 3.34534 -0.606295 0.431445 0.673897
65 1 -6.13919 11.6898 3.83316 0.66449 0.406444 0.486769
66 1 -6.17595 12.2814 4.61507 2.49312 -1.40121 -0.817134
67 1 -5.4616 12.2703 5.31151 -0.361772 -0.650792 -0.0898924
68 1 -5.66245 12.1821 6.3165 -0.380638 0.268148 -0.621226
69 1 -6.40898 12.7225 6.60972 -0.340643 -0.389648 -1.24196
70 1 -6.26451 13.1488 7.54299 -1.97821 1.25577 -1.01108
71 1 -6.06628 13.4413 8.44703 0.100713 -0.466499 -0.151181
72 1 -6.53508 14.1675 8.1208 0.373367 1.82658 0.0759774
73 1 -7.21661 14.7362 8.66246 -0.711278 0.650462 0.999057
74 1 -7.15307 15.6375 8.85652 1.32055 0.417446 -0.537479
75 1 -7.44858 16.0975 8.0898 0.410115 -0.630448 0.125235
76 1 -7.53602 16.6519 8.86519 0.401827 0.699317 -0.30425
77 1 -7.48083 17.2906 9.53706 -0.568566 -0.0726569 1.14139
78 1 -7.29109 16.5344 10.0987 0.686794 -1.3631 0.867541
79 1 -8.10829 16.0851 10.5785 -0.543119 -1.40069 1.00678
80 1 -8.26445 17.0378 10.3286 1.7961 -0.819652 0.0214196
81 1 -9.18515 16.7211 10.33 -1.76071 0.722605 0.239309
82 1 -9.73673 17.4746 10.1898 -0.884531 -1.18899 -0.882814
83 1 -9.86736 17.3231 11.1606 -0.739714 0.153307 1.18536
84 1 -9.00024 16.96 11.4812 1.29021 -0.954243 -0.4487
85 1 -9.16269 17.6813 12.1212 0.265676 0.308349 -0.0598904
86 1 -8.66021 17.876 12.9115 -0.560238 0.763674 0.0243817
87 1 -8.03595 17.7219 13.6024 -1.79259 1.3098 -0.940032
88 1 -8.72379 18.1383 14.2407 0.362913 -1.44059 0.174906
89 1 -8.54834 18.9296 14.7582 0.369584 -0.423946 0.522761
90 1 -8.67512 18.2993 15.5269 -0.447355 1.61428 -0.287488
91 1 -9.51694 18.0112 16.0192 -0.530424 -0.576886 0.0324356
92 1 -9.40859 17.099 16.4609 1.93318 -0.0490854 1.03731
93 1 -8.55297 17.1229 16.9547 -0.833383 0.214745 0.690861
94 1 -9.36965 17.0107 17.4172 -1.09352 -0.406058 1.31329
95 1 -10.0978 16.6386 18.0273 0.958423 -0.224944 0.637737
96 1 -9.73551 16.4228 18.9158 0.698018 -0.773673 0.156358
97 1 -10.1979 15.6293 18.9011 -2.61196 1.63382 0.578411
98 1 -9.37927 15.1088 18.9132 -0.0912842 1.17911 -0.459132
99 1 -10.1067 14.4552 19.0779 0.985704 2.0877 -0.0614137
100 1 -10.8045 14.6868 18.4227 -0.729063 -0.413633 0.720758
101 1 -2.61061 4.34035 -6.58817 1.50752 0.0605668 0.55552
102 1 -2.75461 3.7401 -5.87922 -2.054 0.339969 0.0319689
103 1 -3.17537 3.96595 -5.11426 -0.785673 -1.6379 -0.0974368
104 1 -3.8349 3.27541 -5.15684 -0.733994 1.20284 0.282044
105 1 -4.33273 3.29597 -6.0053 1.26428 1.31777 1.40885
106 1 -3.59261 3.4246 -6.63973 1.10329 0.456368 0.80883
107 1 -3.88464 3.86094 -7.40627 1.67569 2.39354 0.0905768
108 1 -4.34971 4.62651 -7.82373 0.176217 1.45402 0.103946
109 1 -3.99908 5.41136 -7.33724 -0.285755 -0.255941 0.914218
110 1 -4.72628 4.93622 -6.88217 -1.63581 -0.548083 -1.47425
111 1 -5.01043 4.13734 -6.40464 -0.47974 -0.688748 -0.884712
112 1 -5.83675 4.53733 -6.69807 0.870963 -0.652606 -0.819279
113 1 -6.70646 4.70696 -7.04001 -2.17937 -0.482741 -0.299898
114 1 -7.06419 3.88523 -6.83013 -0.459644 -0.353543 -1.80549
115 1 -7.91896 3.53693 -6.51668 0.639159 -0.99991 -0.507962
116 1 -8.44484 2.91976 -6.00739 0.763493 -1.4267 0.17008
117 1 -8.02425 2.39595 -6.63735 0.150587 1.97033 -1.25944
118 1 -8.29826 1.48661 -6.65462 -0.378179 1.56844 -0.564711
119 1 -7.40003 1.31806 -6.83138 0.0235931 0.313859 2.5464
120 1 -6.42126 1.32703 -6.92255 -0.429769 -1.46019 -2.00416
121 1 -5.43956 1.2525 -7.07767 1.13548 0.0746335 -1.51788
122 1 -5.66584 1.9413 -7.76312 -0.906085 -1.24025 -0.850174
123 1 -6.39416 1.39596 -8.03541 0.499224 -0.16961 0.607809
124 1 -6.12569 0.598059 -8.52027 0.639166 0.710946 1.57428
125 1 -5.40583 1.21009 -8.81964 -0.454279 1.19327 -0.341697
126 1 -4.4746 1.49913 -9.00002 0.158292 1.59818 -0.801335
127 1 -3.96729 1.60863 -8.2155 1.08226 -1.09198 0.480656
128 1 -3.88323 1.46722 -7.25427 0.351375 0.892212 -1.57518
129 1 -3.7571 0.609246 -7.77413 -0.183121 -0.552539 -1.78576
130 1 -3.451 -0.297598 -7.96594 1.73963 -1.47808 0.256763
131 1 -2.63734 -0.762091 -7.85793 1.30061 0.645169 0.917782
132 1 -3.20917 -1.44941 -7.5924 -0.5085 -1.1169 0.29956
133 1 -2.47112 -1.71259 -7.0606 1.1495 -0.704698 -0.383751
134 1 -1.85736 -2.417 -7.14888 1.44753 1.00856 -0.947303
135 1 -1.71837 -2.46765 -8.13581 -0.716976 -1.39878 -0.32797
136 1 -2.5546 -2.91849 -8.3399 -1.14934 -1.18045 0.780804
137 1 -3.29566 -2.29036 -8.33147 0.578782 -1.44384 -0.485312
138 1 -3.60566 -2.24096 -9.22199 -0.0505837 1.25064 -0.864286
139 1 -3.63191 -2.60529 -10.0716 0.696313 -1.72033 1.49775
140 1 -2.88544 -1.99584 -9.98177 -0.433392 -0.577025 -0.847467
141 1 -2.04939 -1.71109 -9.47045 0.235204 -0.155188 -0.616492
142 1 -1.21294 -2.13504 -9.68129 2.0448 -1.46068 -0.41792
143 1 -1.81395 -2.05662 -10.4339 -0.314356 0.914108 -0.633628
144 1 -1.72885 -1.23453 -10.8528 0.82453 -0.516185 -1.74602
145 1 -1.37553 -1.67374 -11.6424 -1.55358 0.649334 0.211741
146 1 -0.981996 -2.55499 -11.5814 -1.19023 -0.0230289 -0.766405
147 1 -1.67074 -3.23409 -11.6337 0.313829 0.113832 0.397578
148 1 -1.31425 -3.87179 -11.0292 -0.601035 -0.332356 1.74352
149 1 -0.944253 -3.72385 -10.1446 -1.47673 0.297447 -0.0909336
150 1 -0.744456 -4.53503 -9.73423 0.722186 1.13486 2.21961
151 1 0.138165 -4.2327 -9.4103 0.724039 0.509821 0.472004
152 1 -0.371868 -3.89195 -8.66758 -0.614577 0.519839 -0.286589
153 1 -0.317268 -2.96406 -8.51101 0.904061 -0.943263 0.23301
154 1 0.523032 -2.76688 -8.07804 0.0372174 -0.674211 -0.810583
155 1 0.822125 -2.74461 -8.96817 0.446831 0.370227 0.0881199
156 1 0.972619 -3.53376 -9.44469 -0.86129 -0.588974 0.257777
157 1 1.46099 -2.79787 -9.79595 -0.27876 -0.0743935 0.486647
158 1 1.5083 -1.87199 -9.71208 -0.13449 -0.187155 -1.17337
159 1 0.990248 -1.24775 -9.19127 -0.135983 1.74787 -0.461647
160 1 0.963489 -0.313722 -8.95508 -0.128752 1.19678 1.12387
161 1 1.83893 0.101959 -8.95636 0.808924 0.845094 -0.0338796
162 1 1.41681 0.311589 -9.79349 -0.291122 0.15494 -1.33758
163 1 1.74068 1.19109 -9.6366 0.921548 0.133709 1.63287
164 1 1.76233 1.9442 -9.06128 -1.35323 -0.871888 -0.318125
165 1 1.67333 2.84095 -9.41117 0.840303 1.08948 1.90577
166 1 2.58421 2.97494 -9.4734 -0.539427 -0.712085 -0.576524
167 1 3.36382 2.92393 -8.93128 -0.113938 1.05435 0.720367
168 1 3.49819 2.00426 -8.97004 0.680132 0.627534 -0.507767
169 1 4.27426 2.27984 -9.59594 0.372142 -0.892743 -0.337007
170 1 4.82987 1.99864 -10.3726 -0.308931 -1.21762 0.211561
171 1 4.88306 1.33076 -11.1289 0.268854 -0.570225 -0.107022
172 1 5.75368 1.05235 -11.3466 -2.12893 2.28783 -1.21975
173 1 5.91609 0.466929 -10.6123 -0.0548073 0.492854 1.03327
174 1 5.0347 0.0055506 -10.3997 0.851922 -0.388328 0.734848
175 1 5.02325 0.0935192 -11.3793 0.526717 -0.415783 -0.773283
176 1 5.21827 -0.653093 -12.0577 0.0631386 -2.39007 0.728787
177 1 4.65751 -0.422549 -12.7892 1.01339 -0.320632 -1.30554
178 1 3.96924 -0.681442 -13.3871 0.607639 0.358339 -1.00898
179 1 4.00805 -1.62527 -13.7413 -0.841079 -0.895372 -0.0812692
180 1 3.36173 -1.64506 -13.0162 0.0798199 -0.367745 -1.57272
181 1 3.06926 -2.47916 -13.4573 -1.63138 1.0514 0.1811
182 1 3.25185 -2.79612 -14.3737 -0.425201 0.196671 0.830266
183 1 3.67114 -3.53118 -14.8143 0.536691 -1.83081 0.104388
184 1 4.63446 -3.30844 -14.9696 0.371193 -0.229598 0.813692
185 1 5.2413 -2.75033 -14.4352 -0.839756 0.726392 -0.124335
186 1 4.52744 -3.01161 -13.8553 -0.389221 -0.10567 -0.450461
187 1 5.19954 -3.44546 -13.3965 0.327877 1.80171 -0.359519
188 1 5.55335 -4.20358 -13.8421 1.09904 0.405093 -0.487175
189 1 6.53902 -4.40393 -13.9951 0.45607 -0.280987 1.64616
190 1 6.73182 -3.58195 -13.4614 -1.19878 -1.86737 0.557564
191 1 7.22108 -3.80709 -12.6038 -0.248684 0.500075 -0.328235
192 1 7.01744 -4.12702 -11.7503 -0.677781 0.936072 -0.810154
193 1 7.16536 -3.7732 -10.822 0.497096 0.318291 -0.106495
194 1 6.98264 -3.87522 -9.88524 0.427192 -0.699889 -1.42438
195 1 7.54538 -3.69969 -9.06643 -0.626512 0.419464 0.531257
196 1 8.12703 -4.49582 -8.7267 -0.933662 -0.395955 0.28549
197 1 8.64694 -4.17433 -7.97424 -0.574281 1.24656 -1.47531
198 1 8.3008 -3.25389 -7.93256 -1.77049 0.422939 -1.31173
199 1 7.97284 -2.91099 -7.0386 -0.110462 -0.326048 0.340319
200 1 7.55606 -2.92967 -6.20761 -0.0784041 0.456603 0.378726
ITEM: TIMESTEP
2
ITEM: NUMBER OF ATOMS
200
ITEM: BOX BOUNDS pp pp pp
-5.1114066999999999e+01 4.8885933000000001e+01
-4.9396211999999998e+01 5.0603788000000002e+01
-5.2290295999999998e+01 4.7709704000000002e+01
ITEM: ATOMS id type xu yu zu vx vy vz
1 1 -1.71565 4.30742 -6.26632 -0.806616 1.29386 -0.423584
2 1 -1.04805 3.69498 -5.93868 0.654989 -0.771277 -0.0989064
3 1 -0.250771 4.13868 -5.6584 1.16426 0.0844644 0.745859
4 1 0.598988 3.54043 -5.64473 -1.21958 1.26547 3.1958
5 1 0.366161 2.80959 -5.07146 -1.15735 0.0489047 0.335911
6 1 -0.377596 2.43516 -4.70159 1.02106 -0.977553 0.924557
7 1 0.417375 2.17934 -4.16344 -0.0932916 0.300183 0.850295
8 1 0.423931 2.13654 -3.20874 -1.23895 0.200502 -2.19665
9 1 -0.420285 2.09094 -2.70853 -0.858593 0.549327 1.06836
10 1 -1.25591 1.5443 -2.9366 0.227749 -0.991058 1.0371
11 1 -1.90605 1.20431 -2.2446 0.67353 2.08216 -0.301498
12 1 -2.26663 0.379187 -1.83767 -0.486052 1.097 1.50336
13 1 -2.87821 -0.372941 -1.94553 0.608061 -1.97053 1.57399
14 1 -3.72945 0.148138 -1.94094 -0.9002 -0.938627 1.15957
15 1 -3.64584 -0.499917 -2.59178 0.950388 1.54242 0.59877
16 1 -2.90781 -0.842509 -3.15549 0.256582 0.751306 -0.611503
17 1 -2.11802 -0.753273 -2.63443 0.0830152 0.416948 -0.162301
18 1 -1.7024 -0.655241 -3.46795 -0.950624 2.56812 -0.409047
19 1 -0.762114 -0.86475 -3.32674 0.864524 1.03584 -0.236342
20 1 0.0213686 -0.919986 -3.99357 0.109196 -0.708907 -0.506276
21 1 0.321433 -1.71083 -4.27397 -0.305705 -0.0674033 -0.748395
22 1 0.195537 -2.5054 -3.70744 -0.840202 -0.203125 0.709006
23 1 -0.30154 -2.6391 -2.87115 -0.183909 0.491424 -0.603476
24 1 -0.802 -3.40287 -2.54732 -0.633905 -0.793164 -0.782122
25 1 -0.812189 -3.49346 -1.61698 -0.72121 1.79796 -2.11115
26 1 -0.853914 -2.57135 -1.25479 -1.49198 0.00712486 0.181479
27 1 -0.740243 -1.56759 -1.19903 0.26479 0.865083 -0.902083
28 1 -1.04454 -1.53874 -0.256459 1.21077 1.10026 0.121234
29 1 -1.44205 -0.73926 0.243394 -0.746371 -1.96546 -0.0179768
30 1 -0.83129 -0.143014 -0.249426 1.74226 0.0199421 -0.937979
31 1 -1.83324 -0.10503 -0.404927 -0.934126 0.599972 0.0606499
32 1 -1.63304 0.830989 -0.4728 -1.10679 0.122883 0.762252
33 1 -1.70803 0.652229 0.501177 1.46709 0.361785 1.42751
34 1 -1.69162 0.650043 1.453 -0.0820834 1.5316 -0.122185
35 1 -2.06443 1.45821 1.85861 1.71859 -1.56299 -0.110027
36 1 -1.39245 2.07538 1.50707 -0.449232 0.0966535 -1.14428
37 1 -1.43135 2.97829 1.78501 -1.21739 -0.642585 0.777444
38 1 -1.65444 3.84855 1.3738 -0.634356 -0.559977 -0.453481
39 1 -2.54014 3.59514 1.60485 -0.561302 -0.605888 1.18998
40 1 -3.41958 3.33813 1.88342 0.618071 1.12319 0.548958
41 1 -3.9957 3.81683 1.31384 -0.435323 -1.34859 -0.137979
42 1 -4.7339 3.77927 0.753668 1.06236 0.111218 0.285442
43 1 -5.51845 3.69742 1.27857 -0.682748 0.883138 0.757382
44 1 -4.96317 3.72325 2.01882 -1.16852 1.00862 1.0026
45 1 -5.26894 4.51111 2.56886 0.862948 -0.756047 -0.374361
46 1 -5.98514 3.81749 2.53245 0.785269 -0.399846 0.222786
47 1 -6.0906 4.52747 1.80695 1.12563 -0.422383 0.716194
48 1 -5.55446 5.34413 1.79229 -1.20579 -2.39061 -0.873308
49 1 -4.97436 5.66569 0.995394 -1.48583 1.09402 -0.133907
50 1 -5.10783 6.60023 0.887168 1.57393 0.878046 -0.324748
51 1 -5.89648 7.0835 0.542755 -0.508087 -0.948291 -0.985063
52 1 -6.38321 7.44463 1.3127 -0.0325405 -0.0178674 -0.126084
53 1 -6.06237 8.38482 1.37469 1.3095 -0.0830829 1.2687
54 1 -5.75067 8.3668 2.28483 1.11214 -0.000439769 -2.10596
55 1 -5.57693 9.23122 1.94828 -1.0721 1.61615 -1.30495
56 1 -5.975 10.131 2.06741 0.528266 1.17067 -0.396637
57 1 -5.48901 10.4847 1.27786 -0.649339 0.347122 0.114489
58 1 -4.73837 10.8933 0.896847 -0.871927 0.852089 -1.91169
59 1 -4.48653 11.7628 1.38816 -1.7122 -0.59311 0.750881
60 1 -5.4484 11.8719 1.25102 -0.00739311 0.0488807 0.0606425
61 1 -6.34807 12.0851 1.46923 0.24862 0.398648 -0.00109909
62 1 -6.02108 12.9244 1.75181 1.66566 -0.525859 0.5835
63 1 -6.43207 13.0661 2.57322 1.65968 -0.648559 0.87138
64 1 -6.23175 12.5278 3.34868 -0.608493 0.406259 0.673146
65 1 -6.13589 11.6921 3.83571 0.657469 0.488561 0.512756
66 1 -6.16322 12.2742 4.61106 2.58818 -1.44116 -0.776857
67 1 -5.46377 12.267 5.31135 -0.497431 -0.667898 0.0326805
68 1 -5.6643 12.1835 6.31287 -0.355775 0.299458 -0.828346
69 1 -6.41055 12.7208 6.60403 -0.289965 -0.302277 -1.0313
70 1 -6.27446 13.1549 7.5375 -1.99972 1.17121 -1.17902
71 1 -6.0655 13.4385 8.44639 0.191727 -0.641839 -0.129905
72 1 -6.53392 14.1775 8.12129 0.10812 2.12084 0.134537
73 1 -7.2198 14.7386 8.667 -0.566055 0.281983 0.820004
74 1 -7.14633 15.64 8.85418 1.38161 0.579062 -0.390846
75 1 -7.44661 16.0945 8.09017 0.37347 -0.580404 0.0166865
76 1 -7.53406 16.6551 8.86334 0.384497 0.592473 -0.429663
77 1 -7.48364 17.2906 9.54313 -0.555008 0.0452347 1.2863
78 1 -7.28817 16.5273 10.1033 0.476251 -1.46722 0.981448
79 1 -8.11055 16.0787 10.5831 -0.355676 -1.14911 0.848176
80 1 -8.25555 17.0333 10.3288 1.73692 -0.982598 0.0581735
81 1 -9.19368 16.7246 10.3313 -1.61021 0.65242 0.257717
82 1 -9.74133 17.4688 10.1856 -0.97333 -1.11245 -0.768189
83 1 -9.87073 17.3238 11.1663 -0.59886 0.121859 1.0968
84 1 -8.9941 16.9555 11.4789 1.15258 -0.838899 -0.436989
85 1 -9.16136 17.6827 12.1207 0.266933 0.239435 -0.137232
86 1 -8.66314 17.8799 12.9115 -0.626235 0.788348 -0.0425714
87 1 -8.04512 17.7287 13.5982 -1.85138 1.37322 -0.722568
88 1 -8.72161 18.1309 14.2412 0.503831 -1.51039 0.0539105
89 1 -8.54655 18.9272 14.7611 0.348424 -0.525864 0.623113
90 1 -8.67771 18.3075 15.5254 -0.594618 1.64533 -0.299392
91 1 -9.51913 18.008 16.0193 -0.342217 -0.699565 0.0234566
92 1 -9.39876 17.0993 16.4654 1.9792 0.155682 0.75721
93 1 -8.55719 17.124 16.9579 -0.846126 0.221423 0.610416
94 1 -9.37564 17.0084 17.4248 -1.28463 -0.506472 1.69952
95 1 -10.0926 16.6377 18.0304 1.12721 -0.175666 0.606575
96 1 -9.73175 16.4196 18.9163 0.812494 -0.505745 0.0781115
97 1 -10.2113 15.6368 18.904 -2.70444 1.35098 0.574755
98 1 -9.38005 15.1146 18.9109 -0.228767 1.14065 -0.441029
99 1 -10.1017 14.4659 19.0774 0.995697 2.18432 -0.146948