ITEM: TIMESTEP
0
ITEM: NUMBER OF ATOMS
200
ITEM: BOX BOUNDS pp pp pp
-5.1114066999999999e+01 4.8885933000000001e+01
-4.9396211999999998e+01 5.0603788000000002e+01
-5.2290295999999998e+01 4.7709704000000002e+01
ITEM: ATOMS id type xu yu zu vx vy vz
183 1 3.66886 -3.52201 -14.8149 0.361459 -1.81172 0.159453
184 1 4.63238 -3.30725 -14.9735 0.455784 -0.251961 0.736486
185 1 5.2454 -2.75407 -14.4347 -0.793772 0.776387 -0.0587534
189 1 6.53633 -4.40212 -14.003 0.618785 -0.452741 1.52878
188 1 5.5484 -4.20584 -13.8399 0.870509 0.517208 -0.412837
186 1 4.52887 -3.0108 -13.8533 -0.198702 -0.21512 -0.342368
182 1 3.25389 -2.79695 -14.3776 -0.375851 0.110264 0.698901
179 1 4.01216 -1.62038 -13.7407 -0.790645 -1.05117 -0.189555
187 1 5.1983 -3.45463 -13.3943 0.186276 1.8435 -0.522848
190 1 6.73797 -3.57301 -13.464 -1.25781 -1.69162 0.483473
181 1 3.07755 -2.48427 -13.4583 -1.68649 0.98213 0.225977
180 1 3.36133 -1.64346 -13.0086 0.0720295 -0.265646 -1.46889
178 1 3.96609 -0.683692 -13.3823 0.65019 0.534423 -0.906186
191 1 7.22219 -3.80935 -12.6029 -0.189772 0.406512 -0.0333931
177 1 4.65249 -0.420863 -12.7827 1.01057 -0.358036 -1.28854
192 1 7.0208 -4.1317 -11.7455 -0.668587 0.931025 -1.08948
147 1 -1.67231 -3.23448 -11.6358 0.308988 0.0266973 0.444851
146 1 -0.976139 -2.55488 -11.5776 -1.14699 -0.00790724 -0.762252
145 1 -1.36777 -1.677 -11.6434 -1.53555 0.635793 0.15208
176 1 5.21794 -0.640776 -12.0608 0.0579524 -2.52883 0.523849
148 1 -1.31114 -3.87023 -11.0377 -0.654371 -0.288475 1.63754
175 1 5.02073 0.0951755 -11.3755 0.484191 -0.251179 -0.709255
172 1 5.76459 1.04088 -11.3407 -2.18591 2.25642 -1.13374
171 1 4.88141 1.334 -11.128 0.349491 -0.712075 -0.258858
193 1 7.16282 -3.77493 -10.8219 0.52173 0.374856 0.0281332
143 1 -1.81236 -2.06171 -10.4305 -0.307662 1.10562 -0.688262
144 1 -1.73288 -1.23151 -10.8444 0.780284 -0.661372 -1.59805
174 1 5.03087 0.00773701 -10.4037 0.680643 -0.485033 0.857069
173 1 5.91596 0.464179 -10.6173 0.102897 0.636741 0.923447
170 1 4.83125 2.00453 -10.3737 -0.238802 -1.13869 0.234959
150 1 -0.747722 -4.54103 -9.74504 0.578273 1.27003 2.09633
149 1 -0.937009 -3.72495 -10.1445 -1.41257 0.135903 0.0498477
194 1 6.98074 -3.87164 -9.87775 0.331845 -0.729426 -1.54871
156 1 0.976945 -3.53124 -9.44613 -0.86452 -0.406145 0.319798
139 1 -3.63534 -2.59687 -10.0796 0.673199 -1.664 1.68515
157 1 1.4625 -2.79785 -9.79856 -0.328787 0.053436 0.560818
140 1 -2.88288 -1.99285 -9.97732 -0.580412 -0.613352 -0.929281
141 1 -2.051 -1.71043 -9.46753 0.429658 -0.124519 -0.559717
142 1 -1.22321 -2.12773 -9.67925 2.02434 -1.44977 -0.409959
158 1 1.50897 -1.87058 -9.70615 -0.146828 -0.357917 -1.1865
162 1 1.41822 0.310685 -9.78683 -0.259247 0.21395 -1.30943
163 1 1.73611 1.19041 -9.64485 0.899426 0.102596 1.64694
169 1 4.27215 2.28405 -9.59417 0.471937 -0.788398 -0.370714
166 1 2.58742 2.9786 -9.47063 -0.695707 -0.748034 -0.524877
196 1 8.1314 -4.49332 -8.72826 -0.818652 -0.60185 0.330926
151 1 0.134258 -4.23535 -9.41273 0.840507 0.548956 0.502701
195 1 7.54862 -3.70235 -9.06924 -0.673028 0.638682 0.58396
155 1 0.819856 -2.7461 -8.96861 0.465279 0.225055 0.0746371
138 1 -3.6055 -2.24699 -9.21732 -0.00961578 1.17063 -0.972224
159 1 0.990947 -1.25648 -9.18898 -0.132058 1.72852 -0.468886
160 1 0.96422 -0.319699 -8.96071 -0.156245 1.19917 1.12763
161 1 1.8348 0.0976924 -8.95618 0.827223 0.862457 -0.0513087
125 1 -5.40349 1.20403 -8.81789 -0.475294 1.23401 -0.356597
126 1 -4.47584 1.49101 -8.99619 0.339303 1.64869 -0.711507
164 1 1.76909 1.94876 -9.05961 -1.35255 -0.920613 -0.336443
168 1 3.4953 2.00081 -8.96788 0.472982 0.757531 -0.355771
165 1 1.66853 2.83534 -9.42064 1.05043 1.13777 1.88609
167 1 3.36443 2.91912 -8.93478 -0.141412 0.863895 0.674373
152 1 -0.368795 -3.89481 -8.66621 -0.615115 0.603489 -0.265811
137 1 -3.29839 -2.28323 -8.32883 0.49677 -1.39819 -0.58158
136 1 -2.54884 -2.91245 -8.34378 -1.14278 -1.24367 0.769654
135 1 -1.71494 -2.46069 -8.13384 -0.653761 -1.38282 -0.464695
153 1 -0.321724 -2.95908 -8.51211 0.869057 -1.03065 0.20377
154 1 0.522699 -2.76353 -8.07371 0.103106 -0.664722 -0.900551
124 1 -6.12869 0.594792 -8.52817 0.567304 0.587313 1.5804
123 1 -6.39674 1.39663 -8.03856 0.505999 -0.103272 0.647453
127 1 -3.97253 1.61411 -8.21751 1.00339 -1.09724 0.286753
197 1 8.64967 -4.18036 -7.96693 -0.514199 1.16716 -1.44321
198 1 8.30959 -3.25608 -7.92561 -1.74729 0.456893 -1.46392
132 1 -3.20703 -1.44408 -7.59388 -0.312071 -0.986124 0.287359
130 1 -3.45996 -0.289928 -7.96721 1.82334 -1.56869 0.254046
131 1 -2.64337 -0.765125 -7.86261 1.10534 0.527815 0.970008
129 1 -3.75619 0.612229 -7.765 -0.179317 -0.64377 -1.86321
122 1 -5.66111 1.94733 -7.75858 -0.962177 -1.15458 -0.961165
107 1 -3.89331 3.84942 -7.40725 1.79688 2.20535 0.318057
108 1 -4.35034 4.61922 -7.82406 0.0715996 1.45423 0.0251785
109 1 -3.99791 5.41231 -7.34184 -0.181313 -0.120255 0.932891
134 1 -1.86434 -2.42231 -7.14453 1.35386 1.0985 -0.789951
199 1 7.97376 -2.90951 -7.04114 -0.252417 -0.269526 0.663398
133 1 -2.47693 -1.70888 -7.05855 1.15432 -0.763797 -0.443046
119 1 -7.39947 1.31641 -6.84423 -0.243003 0.344471 2.58955
121 1 -5.44566 1.2524 -7.07027 1.29452 -0.0384751 -1.43574
118 1 -8.29686 1.47871 -6.65171 -0.186178 1.59966 -0.598938
120 1 -6.419 1.33431 -6.91256 -0.462345 -1.44878 -1.99269
128 1 -3.88494 1.4624 -7.24679 0.337178 1.02464 -1.40334
117 1 -8.02466 2.38586 -6.6315 0.0250144 2.04136 -1.10237
106 1 -3.59815 3.42206 -6.64322 1.10353 0.570424 0.568842
114 1 -7.06229 3.88634 -6.8209 -0.310023 -0.117948 -1.88096
113 1 -6.69544 4.71 -7.03872 -2.18206 -0.713678 -0.208235
112 1 -5.84094 4.54055 -6.69391 0.757157 -0.623667 -0.863768
101 1 -2.61815 4.34024 -6.59119 1.4815 -0.0144539 0.641427
110 1 -4.71801 4.93897 -6.87476 -1.67148 -0.552964 -1.4877
200 1 7.55623 -2.93197 -6.20908 0.00519046 0.460713 0.212094
116 1 -8.44898 2.92724 -6.00777 0.882981 -1.54578 -0.000726277
105 1 -4.33875 3.28941 -6.01229 1.13703 1.30781 1.37069
115 1 -7.922 3.54201 -6.51422 0.570298 -1.03759 -0.475298
111 1 -5.00802 4.14091 -6.4003 -0.472932 -0.744362 -0.850033
102 1 -2.74385 3.73792 -5.88013 -2.23165 0.52134 0.294337
2 1 -1.05485 3.70235 -5.93776 0.677407 -0.647429 -0.102579
1 1 -1.70718 4.29459 -6.26195 -0.776093 1.22601 -0.402198
104 1 -3.8314 3.26935 -5.15846 -0.676537 1.20007 0.379587
3 1 -0.259918 4.13657 -5.6657 0.627809 0.336949 0.711186
4 1 0.609095 3.52932 -5.67675 -0.781561 0.959654 3.19503
6 1 -0.389335 2.44326 -4.70878 1.25086 -0.67116 0.53843
5 1 0.380356 2.81039 -5.07613 -1.62331 -0.187976 0.574194
103 1 -3.17194 3.97448 -5.1128 -0.590842 -1.74329 -0.448945
21 1 0.326253 -1.71578 -4.26774 -0.623619 0.931687 -0.519926
20 1 0.0166763 -0.907862 -3.9853 0.788506 -1.61109 -1.10714
7 1 0.417199 2.17666 -4.17255 0.140994 0.233413 0.910575
22 1 0.203525 -2.50281 -3.71414 -0.74178 -0.2874 0.594852
16 1 -2.91167 -0.849688 -3.14904 0.504569 0.689561 -0.671081
19 1 -0.769359 -0.875146 -3.32589 0.539703 1.05108 0.0563733
18 1 -1.69195 -0.680857 -3.46505 -1.08926 2.54724 -0.173571
8 1 0.43564 2.1345 -3.18649 -1.12372 0.203044 -2.1733
24 1 -0.795529 -3.39463 -2.54082 -0.644584 -0.826667 -0.585852
23 1 -0.299297 -2.64405 -2.86592 -0.291922 0.472548 -0.41246
15 1 -3.65503 -0.517432 -2.60058 0.903127 1.91113 1.10198
17 1 -2.11894 -0.757565 -2.63133 0.0989534 0.439075 -0.446891
10 1 -1.25766 1.55469 -2.94521 0.136757 -1.07353 0.667907
9 1 -0.412766 2.08435 -2.72008 -0.624102 0.765993 1.22776
25 1 -0.805042 -3.51036 -1.59416 -0.70895 1.56497 -2.39681
13 1 -2.88445 -0.352041 -1.96054 0.638076 -2.16405 1.4352
14 1 -3.71954 0.158426 -1.95098 -1.06102 -1.09112 0.894995
12 1 -2.26172 0.368645 -1.85314 -0.505704 1.01428 1.57019
11 1 -1.91192 1.18336 -2.24249 0.47047 2.06629 -0.0871079
26 1 -0.838753 -2.57089 -1.25697 -1.53704 -0.0711934 0.256105
27 1 -0.743437 -1.57795 -1.18902 0.367412 1.19025 -1.08747
28 1 -1.05713 -1.54805 -0.257695 1.31333 0.747947 0.106454
30 1 -0.850846 -0.143577 -0.239963 2.08168 0.0492016 -0.922809
31 1 -1.82285 -0.110061 -0.406335 -1.09614 0.382579 0.242402
32 1 -1.62207 0.829541 -0.479208 -1.0841 0.174293 0.529421
29 1 -1.43267 -0.721943 0.243222 -1.09592 -1.42704 0.00633095
33 1 -1.7226 0.648836 0.485444 1.44595 0.318968 1.6637
51 1 -5.89099 7.09277 0.553528 -0.581143 -0.908867 -1.14806
43 1 -5.51373 3.68844 1.2698 -0.233522 0.917071 0.950296
42 1 -4.74514 3.77816 0.749192 1.09782 0.102552 0.600034
49 1 -4.96077 5.65358 0.998621 -1.23289 1.29829 -0.503692
50 1 -5.12441 6.59238 0.890022 1.72252 0.724242 -0.256454
57 1 -5.48446 10.4801 1.27842 -0.242965 0.593087 -0.241468
58 1 -4.72781 10.8874 0.916385 -1.25009 0.326188 -1.98823
60 1 -5.44696 11.8712 1.25041 -0.292863 0.0916825 0.0566139
34 1 -1.69119 0.63558 1.45489 0.0164765 1.31926 -0.230211
35 1 -2.08071 1.47345 1.85902 1.51775 -1.4423 0.0459494
36 1 -1.38844 2.07318 1.51854 -0.352259 0.330084 -1.15416
40 1 -3.42506 3.32635 1.87857 0.449608 1.21834 0.437703
37 1 -1.41945 2.98642 1.77703 -1.16599 -0.961315 0.817741
41 1 -3.99058 3.83095 1.31565 -0.546218 -1.47063 -0.191978
39 1 -2.53515 3.60101 1.59311 -0.394551 -0.557386 1.14518
38 1 -1.64727 3.85338 1.37863 -0.804389 -0.418659 -0.504745
47 1 -6.1011 4.53108 1.80124 0.947111 -0.340121 0.424584
48 1 -5.54161 5.36794 1.7992 -1.33364 -2.32454 -0.512845
52 1 -6.38209 7.44578 1.31345 -0.177378 -0.207913 -0.0377328
53 1 -6.07575 8.3844 1.36232 1.34229 0.157519 1.14352
55 1 -5.56653 9.21718 1.9611 -1.00775 1.16897 -1.25373
59 1 -4.47082 11.7669 1.37947 -1.40805 -0.232797 0.985414
61 1 -6.35137 12.0804 1.4691 0.398646 0.528444 0.0266383
62 1 -6.03656 12.9302 1.7445 1.43661 -0.618157 0.87531
46 1 -5.99218 3.82392 2.52882 0.625664 -0.882512 0.504835
44 1 -4.95076 3.7147 2.01157 -1.28999 0.679934 0.45234
45 1 -5.27801 4.5162 2.57152 0.939371 -0.242146 -0.141563
54 1 -5.76213 8.36585 2.30587 1.20326 0.202379 -2.04848
56 1 -5.9791 10.1186 2.07016 0.280199 1.31072 -0.141656
63 1 -6.44947 13.0727 2.5665 1.81131 -0.657651 0.458154
64 1 -6.22569 12.5235 3.34194 -0.59794 0.442178 0.69419
65 1 -6.14254 11.6881 3.83084 0.673385 0.299937 0.427491
66 1 -6.18815 12.2882 4.61923 2.37758 -1.33529 -0.839837
67 1 -5.46015 12.2735 5.31225 -0.20675 -0.632967 -0.203606
69 1 -6.40714 12.7247 6.61645 -0.402452 -0.465199 -1.44277
68 1 -5.6605 12.1809 6.31908 -0.396551 0.227921 -0.411754
70 1 -6.25468 13.1423 7.54761 -1.95214 1.34002 -0.834829
72 1 -6.53766 14.1592 8.12053 0.668517 1.48374 0.0450567
75 1 -7.45071 16.1008 8.08892 0.437409 -0.662681 0.222784
71 1 -6.0665 13.4432 8.4479 -0.0282909 -0.245302 -0.21053
73 1 -7.21269 14.7321 8.65701 -0.855626 1.00097 1.17266
74 1 -7.15954 15.6359 8.85955 1.27096 0.262472 -0.662379
76 1 -7.53808 16.6481 8.86638 0.422793 0.81159 -0.176206
77 1 -7.47795 17.2913 9.53172 -0.578909 -0.225009 1.00063
81 1 -9.17608 16.7174 10.3289 -1.82046 0.765631 0.230042
78 1 -7.29503 16.5409 10.0947 0.88483 -1.24203 0.741773
82 1 -9.73248 17.4807 10.1944 -0.833399 -1.22317 -0.977126
80 1 -8.27351 17.0415 10.3286 1.79685 -0.681573 -0.0126557
79 1 -8.10512 16.0927 10.5731 -0.721723 -1.64198 1.15899
83 1 -9.86334 17.3222 11.1545 -0.85304 0.178251 1.25164
84 1 -9.007 16.9651 11.4834 1.39932 -1.03967 -0.450424
85 1 -9.16402 17.6796 12.1213 0.265509 0.355977 -0.0057217
86 1 -8.65754 17.8723 12.9113 -0.523682 0.748537 0.0603675
87 1 -8.0272 17.7156 13.6076 -1.68549 1.2276 -1.13153
88 1 -8.72523 18.1453 14.2394 0.21127 -1.3396 0.320157
89 1 -8.55024 18.9314 14.7559 0.388775 -0.325187 0.389218
90 1 -8.67324 18.2913 15.5283 -0.310795 1.5611 -0.250747
91 1 -9.51383 18.0138 16.019 -0.707802 -0.451091 0.0384629
92 1 -9.4181 17.0998 16.4551 1.84978 -0.252924 1.2975
93 1 -8.54886 17.1219 16.951 -0.79789 0.207007 0.801695
94 1 -9.36471 17.0125 17.4117 -0.872931 -0.295655 0.900853
100 1 -10.8007 14.6888 18.4193 -0.798729 -0.389769 0.654765
95 1 -10.1021 16.6399 18.024 0.769292 -0.281006 0.675746
99 1 -10.1115 14.445 19.078 0.957365 1.97579 0.0265289
98 1 -9.37913 15.1028 18.9155 0.0187952 1.2595 -0.480945
97 1 -10.1851 15.6205 18.8982 -2.49057 1.87607 0.582833
96 1 -9.73873 16.4273 18.9148 0.60099 -1.02979 0.241114
ITEM: TIMESTEP
10000
ITEM: NUMBER OF ATOMS
200
ITEM: BOX BOUNDS pp pp pp
-5.1114066999999999e+01 4.8885933000000001e+01
-4.9396211999999998e+01 5.0603788000000002e+01
-5.2290295999999998e+01 4.7709704000000002e+01
ITEM: ATOMS id type xu yu zu vx vy vz
180 1 -1.39738 -4.57801 -18.4459 0.0752308 0.406308 -0.0687258
185 1 1.59727 -3.54504 -18.2527 0.225849 0.782321 -0.0639414
199 1 2.24151 -7.61241 -17.5025 -0.788387 0.319819 -0.843443
200 1 2.92725 -7.1574 -17.9529 0.648011 -0.206547 -0.723712
178 1 -1.17444 -5.71977 -17.8915 -0.174224 -0.773766 0.378741
179 1 -1.7571 -4.98451 -17.6073 0.820793 0.422516 0.361566
181 1 -0.95292 -4.22363 -17.6943 -1.66372 -2.0013 0.736558
184 1 0.753688 -3.4164 -17.7673 0.294774 -0.0052995 -1.2563
186 1 1.81802 -3.20443 -17.3547 -1.16939 1.48998 -1.64211
169 1 -1.90717 -2.23219 -17.4943 1.3415 0.592985 0.577479
168 1 -1.478 -1.364 -17.5942 1.09705 -0.289599 -1.19177
198 1 2.73087 -7.81593 -16.6809 0.577764 1.28122 -0.132189
176 1 -1.47306 -6.04802 -16.8114 -0.662617 1.29537 1.65179
177 1 -0.938992 -5.33968 -17.0254 1.14751 1.81749 2.01086
182 1 -0.505227 -4.33552 -16.82 -0.050565 -0.795855 -0.344241
183 1 0.311883 -4.06143 -17.2279 0.508419 1.19228 0.144542
187 1 1.24682 -3.79518 -16.8684 -0.451921 -0.650375 0.216494
170 1 -2.32283 -2.89671 -17.0375 -0.949705 -1.05525 -0.692894
167 1 -0.907833 -1.41001 -16.7892 -0.681285 0.816642 0.525426
166 1 -0.542991 -0.587534 -17.1175 1.77763 0.344391 -0.148655
165 1 0.0319804 0.130011 -17.0083 0.363586 -0.49819 -0.255082
163 1 1.52242 0.34124 -17.1874 0.476962 1.48691 1.36091
162 1 2.29399 0.780366 -16.6753 -0.142472 -1.44066 0.248273
197 1 2.6497 -7.19081 -15.9248 -1.00494 -1.96025 0.0442917
175 1 -1.80221 -5.38811 -16.2229 0.2484 1.56904 0.504023
190 1 2.47394 -5.69516 -15.959 0.0298151 0.733601 0.296597
174 1 -2.30806 -4.60722 -16.0588 -1.6755 -1.37754 0.58596
189 1 2.06047 -4.81731 -16.0701 -0.459106 -1.1389 -1.63563
173 1 -2.42286 -3.70503 -15.9208 0.301315 -1.92253 -0.245984
188 1 1.25456 -4.28939 -16.0072 -0.533954 -1.42179 0.122712
171 1 -1.56863 -2.70138 -16.4555 -0.812444 -0.355781 -1.48383
160 1 2.42694 -0.429092 -15.9171 0.133537 0.485003 -0.270741
164 1 0.933075 0.211458 -16.4422 -1.32153 -0.0134122 0.869358
161 1 2.98387 0.264442 -16.3174 1.37827 0.0362557 1.71209
196 1 3.47043 -6.96789 -15.5275 -0.270048 0.83197 0.519754
193 1 1.45089 -6.4647 -15.4844 -0.136178 1.01316 0.489049
172 1 -1.53811 -3.38845 -15.7273 1.00463 2.33535 -0.138868
159 1 2.33605 0.0517906 -15.1563 -0.615305 -0.0107105 0.0323709
194 1 1.98318 -7.18099 -15.1417 -0.628968 -1.58368 0.106154
195 1 2.90788 -7.15294 -14.7045 -1.00539 0.887758 -1.79238
192 1 1.32693 -5.94239 -14.7104 1.34131 -0.402431 0.162997
191 1 2.12009 -5.48004 -15.0514 0.00521303 -0.0590836 -1.18332
158 1 2.53082 0.74809 -14.5293 0.12507 -0.410054 0.415086
157 1 1.62463 0.649039 -14.2082 0.810994 0.925504 1.69183
156 1 2.04402 1.33422 -13.7893 0.536821 -2.02222 1.45175
155 1 2.31471 2.35403 -13.6485 0.604906 -0.054094 0.260563
141 1 -0.461506 6.46903 -13.0426 -0.905327 -0.303025 -2.27345
140 1 0.512856 6.46864 -13.1509 1.21769 0.682123 -1.00478
142 1 -0.127203 7.18911 -13.5684 -0.0108505 -0.862208 0.379733
154 1 1.96732 2.63268 -12.7144 0.821184 0.125967 0.0992207
153 1 1.32299 3.28574 -12.3556 0.80421 0.866964 -0.618235
152 1 0.525153 3.72267 -12.5538 -2.39422 0.637171 -0.502658
139 1 1.39631 6.24755 -12.7612 -0.151802 1.4764 0.163
143 1 -0.273056 7.72911 -12.7806 0.475485 -0.0635997 -1.02379
151 1 -0.262037 3.92023 -11.9486 -1.3811 0.00210458 -0.0161834
136 1 1.93415 4.23995 -12.0377 2.88902 0.350639 0.138549
137 1 1.53478 5.05178 -11.6249 1.84009 0.179316 -1.16955
147 1 -1.46789 6.07886 -11.8309 -0.981358 1.70991 -0.540932
138 1 1.87653 5.86128 -12.0234 -0.412954 0.326096 -0.570384
146 1 -1.81219 6.86608 -12.2449 1.4189 -0.158145 0.0738961
144 1 -0.792433 7.28528 -12.1979 -1.06396 -0.951091 -0.621436
145 1 -1.65182 7.78168 -12.1252 -0.637809 -1.03776 0.775962
135 1 2.53857 4.03249 -11.3548 -1.45355 -1.20571 -0.639967
150 1 -0.65782 4.64675 -11.3355 -1.83646 -0.233076 0.392408
148 1 -1.17405 6.21808 -10.9164 -1.55113 -0.184519 -1.49389
149 1 -0.548202 5.64448 -11.4111 0.376537 1.09198 0.64755
132 1 3.64797 3.18718 -10.8106 -1.46434 0.0226949 1.19545
134 1 3.12168 4.45041 -10.733 -0.792042 0.401493 -0.412493
133 1 3.09571 3.67245 -10.1234 -2.14098 1.3909 0.374736
131 1 4.18579 3.49384 -10.1361 0.70564 -0.680103 -1.60429
129 1 3.39641 3.17255 -8.88101 1.38191 -0.115013 0.89555
130 1 3.97123 3.87695 -9.25714 1.21557 0.399132 0.588622
128 1 2.9174 3.5514 -8.11523 1.64659 0.778349 -2.74716
127 1 2.17223 3.73088 -7.55361 -0.222264 1.38792 -1.25085
126 1 2.09398 3.22716 -6.63296 -0.528399 -0.733786 -0.0399222
123 1 1.10663 4.58963 -6.91379 0.240856 0.303388 0.287812
122 1 0.362692 5.05145 -6.66587 -0.999985 0.626668 0.311085
121 1 -0.145741 5.84677 -6.62975 0.180675 1.11108 -1.02626
114 1 -3.89562 9.14341 -6.88992 0.759349 -1.08266 0.380061
125 1 2.51163 3.84184 -6.00591 -0.184522 -1.12812 0.431216
124 1 1.70506 4.23816 -6.25519 0.245514 -0.506115 -0.0565333
120 1 -1.0145 6.17369 -6.19971 -1.84202 0.535248 0.367557
119 1 -1.91985 6.39565 -6.55237 -0.0907519 -0.60997 0.757712
117 1 -2.98133 7.29273 -5.92657 1.6075 -0.288517 -0.200818
116 1 -3.64453 7.98136 -6.11472 0.0814998 0.38575 -0.734136
115 1 -4.3477 8.61632 -6.16555 -0.946626 1.14898 -0.926658
113 1 -4.54804 9.67577 -6.47819 -1.10648 0.233114 0.277531
112 1 -3.90892 10.2652 -6.03984 -0.167835 1.2538 -0.263752
118 1 -2.27141 6.71862 -5.66847 -0.523595 2.61441 0.821137
111 1 -4.03509 11.0356 -5.36447 -0.623647 -1.24639 1.11228
110 1 -3.39636 11.7734 -5.36914 1.05199 -0.147186 -1.30474
108 1 -2.59999 10.42 -4.58298 -1.85148 0.627427 0.743506
109 1 -2.65927 11.3671 -4.78111 0.808339 -0.643933 1.3364
107 1 -2.631 9.4868 -4.0776 0.957637 -0.447536 1.17053
106 1 -2.2822 9.76312 -3.17834 -0.396318 -0.844299 -0.805597
103 1 -4.35178 10.9911 -3.01104 0.140723 1.6316 1.76647
105 1 -3.16552 9.56813 -2.81053 -0.230436 -0.25055 1.51605
104 1 -3.60112 10.3762 -2.95481 1.73006 0.302363 -0.326275
102 1 -4.07656 11.7247 -2.51381 -0.225118 -0.88387 0.800493
7 1 -6.53915 13.3785 -2.6119 0.968198 0.774067 -0.62564
101 1 -3.90309 11.5866 -1.58995 -0.333535 -0.785155 -0.311451
9 1 -8.09887 12.3843 -2.09939 -1.26487 -0.264112 0.312587
8 1 -7.3922 13.0852 -2.24252 1.09583 0.65067 -0.0491929
6 1 -6.3407 13.0961 -1.71946 -0.451196 -0.278544 -1.03413
14 1 -6.90992 10.5956 -1.38199 -0.889719 0.301863 -0.229399
10 1 -7.9573 11.752 -1.29454 -0.25243 -0.0887866 0.702698
5 1 -5.88981 13.2138 -0.902907 -0.098329 1.81703 1.14274
12 1 -8.45035 10.1265 -0.758366 -0.627767 -0.273483 -1.30839
13 1 -7.52955 10.2165 -0.778173 -0.437433 0.854378 0.732759
15 1 -6.2026 10.2805 -0.816722 0.967137 -1.38981 0.418767
11 1 -8.57156 11.0769 -0.809556 0.250405 0.105438 -0.779442
16 1 -5.65316 11.0605 -0.584396 0.00836259 -0.291142 0.241899
1 1 -4.09201 11.4432 -0.682743 1.1115 -0.478688 -0.617315
4 1 -5.39843 12.5173 -0.451362 -0.243228 0.0512272 -1.38429
17 1 -5.87253 11.4164 0.268271 1.02287 2.33242 0.0338561
2 1 -4.18624 11.8471 0.172313 2.73886 -1.29341 -0.499526
19 1 -7.5412 12.5424 0.209956 -0.973661 -0.0523014 1.62543
18 1 -6.64716 12.0884 0.0786467 0.909848 1.06392 1.08606
3 1 -4.79565 12.6035 0.294673 -0.750623 -0.0130561 1.35628
21 1 -7.60765 10.7894 1.25686 -1.05915 0.0403735 0.892798
20 1 -7.37564 11.5786 0.728717 -0.12337 -0.342092 -0.214283
23 1 -8.97332 10.7046 1.59365 -1.09695 -0.863237 0.211479
24 1 -9.656 10.3247 2.08575 0.579811 -0.218628 -0.0612545
22 1 -8.07295 10.3672 2.01659 1.90493 -0.0539324 1.81428
38 1 -7.11492 6.22555 3.30886 -0.56058 -0.358141 0.520844
25 1 -9.54005 10.1544 3.01917 0.205925 -0.5988 1.09557
39 1 -6.55248 5.78785 4.0681 1.00265 -2.10124 -0.343918
37 1 -7.84586 6.5876 3.77685 -0.314866 0.207138 0.950464
28 1 -11.2371 9.92958 3.85937 -0.190713 -0.56968 0.920309
27 1 -10.3546 10.3556 4.09753 1.85043 0.0396765 1.4135
26 1 -9.62923 10.8889 3.67218 -0.686736 0.133131 0.756151
40 1 -7.19746 5.49653 4.79184 -0.572446 0.316175 1.72438
36 1 -7.90208 6.68573 4.74232 -0.0790645 -1.22137 1.43241
29 1 -10.9684 9.31513 4.53254 0.472577 -0.405617 -1.2468
32 1 -9.27448 9.60833 4.82974 0.8085 -0.520226 0.56256
43 1 -7.26768 3.33621 5.45336 -0.190079 0.305313 -0.815811
42 1 -6.57771 3.74616 4.93419 -0.144228 0.208558 -1.22988
41 1 -6.93761 4.66019 5.06153 0.962155 -0.434027 -0.409548
35 1 -8.69532 7.22688 4.89251 -1.18993 0.468526 0.702324
34 1 -8.7697 8.17511 4.93792 -1.22289 -1.80992 0.0845089
33 1 -9.62369 8.68552 4.92645 0.235482 -1.90987 -0.389568
30 1 -10.6227 9.99648 5.13931 -0.0943076 -0.846509 -0.761039
31 1 -9.70432 10.2555 5.43272 -0.755819 -0.167273 0.192808
44 1 -8.01855 3.51906 6.05012 0.124495 0.442873 1.07037
45 1 -7.4338 3.82861 6.8642 1.08164 -0.660821 -0.855357
60 1 -6.56313 9.60694 6.397 0.419598 1.39254 -0.794505
61 1 -6.04368 10.3987 6.58918 1.95236 0.691364 -0.234245
62 1 -5.10533 10.1313 6.9567 -0.734447 -0.142063 0.352267
47 1 -8.14347 3.25576 7.41977 1.02247 -1.35448 0.311908
46 1 -7.20113 3.23937 7.60017 -0.96119 -1.37611 1.56916
56 1 -6.81191 7.9539 7.26808 -0.443095 -1.16627 -1.61567
57 1 -5.79506 7.85061 7.30343 -0.0619452 -0.778207 0.0779546
59 1 -6.63161 9.01444 7.20453 1.0298 0.527143 -0.565786
58 1 -5.6901 8.74664 7.05176 1.11006 1.13675 -0.124988
63 1 -4.69953 10.7125 7.53605 -1.87827 0.875186 -2.09975
88 1 -5.7759 17.2094 7.5291 0.526525 0.892838 -1.04229
89 1 -4.89478 17.4546 7.6463 0.079015 0.927215 0.0197178
100 1 -6.68495 19.0472 7.29644 0.250469 0.542628 0.0399704
48 1 -8.02403 4.1398 7.83734 0.292106 0.622859 0.862833
49 1 -7.66339 5.00432 7.84759 0.45596 -0.270576 -0.105823
50 1 -8.27695 5.64189 8.30086 -0.10095 -0.914462 -1.17729
55 1 -6.6862 7.32259 8.02136 -1.20131 -0.0210355 -2.14519
65 1 -5.85368 10.4103 7.91914 -0.63303 0.834603 -0.415377
64 1 -4.95242 10.1297 8.26946 -0.278773 -0.104815 -0.100938
87 1 -6.53345 16.8038 8.06418 0.13082 3.14675 -0.912628
90 1 -4.2438 18.2025 7.79905 1.17353 -0.027712 1.0415
99 1 -6.72101 18.8805 8.31315 -2.47303 0.628185 1.84475
91 1 -5.08308 18.508 8.33113 2.57842 0.288349 1.40643
98 1 -7.32335 19.5502 7.91354 -0.736577 0.20594 -0.157462
92 1 -4.65664 19.3684 8.12359 -0.945691 -0.400151 0.564096
97 1 -7.45518 20.449 8.11131 1.2238 1.72671 0.84154
96 1 -7.14441 21.3213 7.80263 -1.05367 -0.0530265 -0.501003
95 1 -6.43088 21.4285 8.39527 -0.426579 -0.625619 0.00698251
51 1 -7.72926 5.39701 9.05208 -2.96745 -0.313866 -0.284115
54 1 -6.46602 7.06967 8.96662 -0.999591 -1.77284 -2.90393
66 1 -6.246 10.5869 8.78429 1.14056 -0.756682 -0.447029
69 1 -7.25367 12.0762 9.11383 -2.85388 -0.0382605 -0.700272
70 1 -6.8737 12.947 9.10267 0.476612 0.999463 -0.784831
85 1 -6.37312 15.451 9.08444 -1.83992 0.756357 0.779948
86 1 -6.19414 16.3549 8.85165 1.52177 1.77091 1.27552
93 1 -5.48135 19.7398 8.42711 1.09604 1.70557 0.484618
94 1 -5.85117 20.6702 8.49875 -0.330756 -1.99047 1.05649
52 1 -8.0213 6.22857 9.60055 1.11484 0.0813052 1.91202
53 1 -7.10946 6.2886 9.28995 -2.006 0.852621 -0.480716
68 1 -6.8997 11.2652 9.42811 0.374374 0.459118 0.0234022
67 1 -6.18427 10.6672 9.7632 -0.365099 1.22456 -0.111726
83 1 -7.72599 16.1127 9.49294 0.0877154 -1.48414 -1.01636
84 1 -6.76783 16.1284 9.61772 0.784312 0.561739 -1.20641
81 1 -8.64711 17.584 9.62301 -0.653344 0.806755 -0.458017
72 1 -7.49701 13.8445 10.4446 0.994691 1.55755 -0.209423
71 1 -6.79785 13.5226 9.89053 -1.05062 0.250328 -0.563171
82 1 -8.02823 16.9358 9.91128 2.50055 -1.09258 0.376827
80 1 -8.25072 18.1113 10.3352 0.238237 -0.221342 -2.05965
73 1 -8.24134 14.4337 10.7251 0.0464191 -0.24024 0.330748
76 1 -9.39171 15.5876 10.9866 -1.15823 0.200017 -1.30591
75 1 -8.47844 15.8516 11.2608 -1.37317 0.000588732 0.254879
77 1 -9.53132 16.5599 11.0836 -1.53052 0.128461 -0.160735
78 1 -8.97617 17.2944 10.9992 1.27236 1.49981 0.682363
79 1 -8.81542 18.2286 11.1038 -0.786446 -0.0850041 0.0530781
74 1 -8.00532 15.0215 11.396 1.04339 0.0948649 -1.14328
ITEM: TIMESTEP
20000
ITEM: NUMBER OF ATOMS
200
ITEM: BOX BOUNDS pp pp pp
-5.1114066999999999e+01 4.8885933000000001e+01
-4.9396211999999998e+01 5.0603788000000002e+01
-5.2290295999999998e+01 4.7709704000000002e+01
ITEM: ATOMS id type xu yu zu vx vy vz
198 1 5.17037 1.77522 -16.1055 0.714556 1.30083 -0.464549
197 1 4.65252 2.60902 -15.8723 0.249774 0.162954 -0.0438527
195 1 4.08235 3.97162 -16.5671 -1.47608 -1.05467 0.915568
196 1 4.72577 3.60872 -15.9871 0.83957 -0.464865 -0.257768
194 1 4.12367 3.56137 -17.4711 -0.51803 2.47278 0.787968
199 1 5.67627 1.16719 -15.4655 -1.33528 1.20277 1.00148
193 1 4.01047 3.73829 -18.3928 0.539857 -0.963868 0.78672
185 1 0.277945 5.77616 -17.0998 -1.0601 -1.04902 0.979221
200 1 6.35329 1.62625 -15.9628 0.584433 0.16352 -0.615297
186 1 0.864885 6.5176 -17.3638 1.20013 0.445799 -1.08126
187 1 0.758955 6.70696 -18.2874 0.0389534 -0.978734 -0.107518
188 1 1.53294 6.57566 -18.8646 -0.761678 0.538899 0.872418
189 1 2.02185 6.05666 -18.1493 1.10624 -0.241164 1.47689
184 1 -0.261518 4.96477 -17.0062 -1.54449 1.48307 -0.288782
190 1 2.31472 5.28216 -18.7287 0.912882 -1.20832 1.31784
191 1 3.31792 5.50545 -18.7877 0.502121 -0.245822 -1.53218
192 1 3.69313 4.59522 -18.5946 -0.718087 -0.315711 0.445874
183 1 -0.714718 4.21339 -17.5089 1.6064 0.759833 0.289857
165 1 -5.71042 4.01031 -14.7754 1.85781 0.210963 0.248666
164 1 -6.48508 4.48768 -14.5973 1.00072 0.282033 2.08046
182 1 -1.17633 4.37601 -16.6715 -0.660184 0.912385 1.36307
163 1 -5.83625 4.44679 -13.8396 -0.00999551 0.744142 1.46298
162 1 -5.12543 5.11278 -13.7476 -0.108605 0.437196 -1.35251
167 1 -4.87189 2.85507 -14.9667 0.324489 3.14553 0.0680777
168 1 -5.24914 3.30196 -14.1544 -0.845521 -0.140176 -1.31764
166 1 -5.19513 3.62707 -15.4644 -0.282891 -0.167912 0.641577
179 1 -0.966653 3.07326 -14.8919 -0.920678 -0.419885 -0.289437
181 1 -1.38052 4.25613 -15.6868 2.48745 0.26705 -0.869458
180 1 -0.657736 3.97399 -15.0709 1.49211 0.693495 -0.496269
161 1 -4.4466 4.49165 -13.9743 -1.68708 0.963255 0.0931114
169 1 -5.04172 2.4672 -13.5868 0.533944 -0.0288773 -2.10475
177 1 -1.27633 1.20244 -14.9911 -1.08142 -0.856683 -0.706748
178 1 -1.05103 2.1366 -14.8855 0.512499 0.860923 1.30036
176 1 -2.09646 0.848521 -14.8894 0.753276 0.560286 -1.73266
175 1 -2.63628 1.03753 -15.6365 -1.67757 2.16409 -2.59722
160 1 -4.26528 3.84965 -13.2885 -0.972692 -1.55542 1.08676
159 1 -4.23705 3.06378 -13.7645 0.772894 -1.81224 1.37763
170 1 -5.58485 1.80842 -13.0456 -0.00608203 0.598838 2.13722
173 1 -4.11649 1.90015 -15.0887 -0.736819 0.49508 -0.446225
174 1 -3.22034 1.60001 -15.1496 -0.050331 -1.90907 -1.17982
158 1 -4.00395 2.22353 -13.421 0.284564 -1.50527 -1.36393
157 1 -3.12728 2.30378 -13.1803 1.18205 -0.774893 -1.28162
171 1 -5.11868 1.30906 -13.7575 -1.20983 -0.00956525 -0.112855
172 1 -4.82856 1.87214 -14.4514 0.00218033 -0.0749671 -0.337827
156 1 -2.89691 2.73012 -12.3829 -0.417751 0.218475 -0.0632392
154 1 -2.88065 4.65139 -12.24 -1.48937 1.54539 -0.00105037
155 1 -2.78515 3.66162 -12.2908 0.562608 -0.209544 1.48551
146 1 -6.81914 5.45243 -9.81175 0.695996 1.99998 0.916831
153 1 -2.85608 4.85572 -11.3443 -0.0222628 -0.118874 0.599066
145 1 -6.874 4.98746 -8.9465 -0.402022 0.117926 -0.17712
152 1 -3.40976 5.60898 -11.0492 -0.469788 1.17515 0.65001
147 1 -6.03587 5.96417 -9.49068 -0.731682 -1.07733 -0.280343
144 1 -7.04276 4.86806 -7.88443 -1.84024 0.711601 -1.20646
143 1 -7.17886 5.79051 -7.83512 0.224746 -0.0190755 1.84333
150 1 -3.76415 6.33728 -10.4955 -1.17068 0.449273 -1.50361
151 1 -2.9141 6.4509 -10.9403 1.58059 0.136968 -0.82351
149 1 -4.58261 6.33619 -10.0065 0.0803934 0.667825 -0.174544
142 1 -7.82248 6.50294 -8.02611 0.0196321 -0.690786 0.871304
139 1 -6.62279 7.35287 -10.044 -0.915265 -0.41748 0.300363
136 1 -6.24609 9.41531 -9.17536 -3.09821 1.73078 2.41635
148 1 -5.34472 6.6519 -9.50504 0.146174 -0.564361 0.0418438
141 1 -7.39946 7.27124 -8.43709 0.559388 -1.25215 -0.230338
140 1 -7.14816 7.10427 -9.32167 -0.313599 0.197203 0.18692
135 1 -6.08206 9.93174 -8.43097 0.254645 -0.137865 1.15379
137 1 -6.59554 8.66604 -9.59507 -1.4967 -0.94628 0.301908
134 1 -6.73156 10.611 -8.38842 0.189468 0.237875 0.105639
138 1 -6.41074 8.24303 -10.3759 -0.77585 0.417476 0.276492
109 1 -2.02661 8.0049 -8.91665 0.767447 1.26133 -0.783969
133 1 -6.727 10.6246 -7.39539 -1.02465 0.0775017 -1.02942
107 1 -2.67522 6.25451 -8.86784 0.458315 0.727756 -1.20357
108 1 -2.21648 7.09961 -8.79347 -0.523991 0.176253 0.85545
110 1 -1.908 8.9457 -8.99413 0.187334 0.221401 0.492091
132 1 -7.40021 11.1401 -7.04301 0.166003 -1.37484 0.332362
131 1 -7.63292 10.2653 -6.82294 1.50517 0.330288 -2.31847
130 1 -7.83197 10.0921 -5.86185 1.01368 0.536819 0.67887
104 1 -3.01613 6.72441 -7.74605 0.680623 -1.77037 0.826571
105 1 -3.51052 5.95062 -7.83786 0.146306 0.359822 0.330493
106 1 -2.74342 5.56678 -8.24675 -1.41574 -0.853521 0.0993208
111 1 -2.62792 8.99429 -8.35704 -0.918257 2.08845 -0.775908
129 1 -6.98152 9.9979 -5.36302 -0.207315 -0.840882 0.479509
127 1 -6.53361 9.39603 -4.59257 -0.650624 0.959112 -1.16996
128 1 -6.3026 9.30479 -5.48478 -1.78989 -0.417788 0.257527
103 1 -3.89112 7.01294 -7.41195 -1.26455 0.855449 -1.0043
112 1 -2.72941 8.93229 -7.45405 0.433516 1.11584 -0.192104
113 1 -2.50361 8.97292 -6.48889 0.0959661 -0.454424 -0.902502
114 1 -3.09173 9.72248 -6.59355 -0.1911 0.147327 -0.111349
126 1 -5.89699 9.61331 -3.8367 0.721492 1.35349 1.35325
102 1 -3.41467 6.57472 -6.71296 -0.394252 0.087177 0.211308
101 1 -2.75696 7.22721 -6.41089 0.0499836 2.46765 0.477349
115 1 -2.41607 10.01 -5.96138 0.897836 -0.300746 -0.865454
125 1 -5.76865 10.0669 -2.96113 1.69508 -2.08734 0.229325
124 1 -5.58769 10.6687 -3.64376 -0.0504826 0.450492 0.238884
1 1 -2.23629 7.04732 -5.56216 -1.15084 -0.0744734 1.3724
2 1 -2.82119 7.41707 -4.87484 -1.55555 -1.19112 0.395469
5 1 -3.45704 6.70683 -2.65322 -0.335063 -0.833209 -1.07114
8 1 -4.39006 5.63861 -0.665321 0.577063 -1.66147 -0.291433
7 1 -3.84536 5.46841 -1.43393 -0.205144 -1.26629 1.04368
6 1 -3.64419 6.32244 -1.79816 -1.23327 0.314623 2.1935