LAMMPS (23 Jun 2022 - Update 1)
OMP_NUM_THREADS environment is not set. Defaulting to 1 thread. (src/comm.cpp:98)
  using 1 OpenMP thread(s) per MPI task


variable        runtime equal 1000000
variable		subsample_rate equal 1000

variable		outputfile_created string '3_created.data'
variable		outputfile_relaxed string '5_relaxed.data'
variable		outputfile_selfasb string '6_a_self_assemble.lammpstrj'
variable		outputfile_trajlin string '6_b_trajlin.data'
variable		outputfile_assembled string '7_assembled.data'

units           lj
atom_style      full
dimension       3
boundary        p p p
timestep        0.005

read_data       ${outputfile_created}
read_data       3_created.data
Reading data file ...
  orthogonal box = (0 0 0) to (35 35 35)
  1 by 1 by 1 MPI processor grid
  reading atoms ...
  100 atoms
  reading velocities ...
  100 velocities
  scanning bonds ...
  1 = max bonds/atom
  reading bonds ...
  99 bonds
Finding 1-2 1-3 1-4 neighbors ...
  special bond factors lj:    0        0        0       
  special bond factors coul:  0        0        0       
     2 = max # of 1-2 neighbors
     2 = max # of 1-3 neighbors
     4 = max # of 1-4 neighbors
     6 = max # of special neighbors
  special bonds CPU = 0.000 seconds
  read_data CPU = 0.005 seconds

bond_style      fene
bond_coeff      * 30.0 1.5 1.0 1.0
special_bonds   fene
Finding 1-2 1-3 1-4 neighbors ...
  special bond factors lj:    0        1        1       
  special bond factors coul:  0        1        1       
     2 = max # of 1-2 neighbors
     6 = max # of special neighbors
  special bonds CPU = 0.000 seconds

variable        Temp equal 1.0
variable        velSeed equal 926458

velocity        all create ${Temp} ${velSeed}
velocity        all create 1 ${velSeed}
velocity        all create 1 926458

### Output
thermo_style    custom step temp density press etotal pe ke epair spcpu
thermo          1000

###########################################################################
# Soft relaxation (to remove overlaps of particles)
######################################################################

pair_style      soft 1.0
pair_coeff      * * 0.0
variable        prefactor equal ramp(0,300)
fix             rampSoft all adapt 1 pair soft a * * v_prefactor

minimize        0.0 1.0e-8 1000 100000
WARNING: Using 'neigh_modify every 1 delay 0 check yes' setting during minimization (src/min.cpp:187)
Generated 0 of 6 mixed pair_coeff terms from geometric mixing rule
Neighbor list info ...
  update every 1 steps, delay 0 steps, check yes
  max neighbors/atom: 2000, page size: 100000
  master list distance cutoff = 1.3
  ghost atom cutoff = 1.3
  binsize = 0.65, bins = 54 54 54
  1 neighbor lists, perpetual/occasional/extra = 1 0 0
  (1) pair soft, perpetual
      attributes: half, newton on
      pair build: half/bin/newton
      stencil: half/bin/3d
      bin: standard
WARNING: Communication cutoff 1.3 is shorter than a bond length based estimate of 1.7550000000000001. This may lead to errors. (src/comm.cpp:727)
Per MPI rank memory allocation (min/avg/max) = 8.346 | 8.346 | 8.346 Mbytes
   Step          Temp         Density         Press          TotEng         PotEng         KinEng         E_pair         S/CPU     
         0   1              0.0023323615  -0.0039617958   21.524174      20.039174      1.485          0              0            
       362   1              0.0023323615   0.0023090379   21.485548      20.000548      1.485          0              70360.954    
Loop time of 0.00514765 on 1 procs for 362 steps with 100 atoms

97.7% CPU use with 1 MPI tasks x 1 OpenMP threads

Minimization stats:
  Stopping criterion = force tolerance
  Energy initial, next-to-last, final = 
      20.0391741078675   20.0005480767337   20.0005480767337
  Force two-norm initial, final = 11.878422 7.9509778e-09
  Force max component initial, final = 6.6117807 1.3572772e-09
  Final line search alpha, max atom move = 1 1.3572772e-09
  Iterations, force evaluations = 362 738

MPI task timing breakdown:
Section |  min time  |  avg time  |  max time  |%varavg| %total
---------------------------------------------------------------
Pair    | 0.00021346 | 0.00021346 | 0.00021346 |   0.0 |  4.15
Bond    | 0.002341   | 0.002341   | 0.002341   |   0.0 | 45.48
Neigh   | 0.0014277  | 0.0014277  | 0.0014277  |   0.0 | 27.74
Comm    | 0.00018053 | 0.00018053 | 0.00018053 |   0.0 |  3.51
Output  | 0          | 0          | 0          |   0.0 |  0.00
Modify  | 0          | 0          | 0          |   0.0 |  0.00
Other   |            | 0.0009849  |            |       | 19.13

Nlocal:            100 ave         100 max         100 min
Histogram: 1 0 0 0 0 0 0 0 0 0
Nghost:             20 ave          20 max          20 min
Histogram: 1 0 0 0 0 0 0 0 0 0
Neighs:              0 ave           0 max           0 min
Histogram: 1 0 0 0 0 0 0 0 0 0

Total # of neighbors = 0
Ave neighs/atom = 0
Ave special neighs/atom = 1.98
Neighbor list builds = 17
Dangerous builds = 0

fix             nvtSoft all nvt temp ${Temp} ${Temp} 0.5
fix             nvtSoft all nvt temp 1 ${Temp} 0.5
fix             nvtSoft all nvt temp 1 1 0.5
run             100000
Generated 0 of 6 mixed pair_coeff terms from geometric mixing rule
WARNING: Communication cutoff 1.3 is shorter than a bond length based estimate of 1.7550000000000001. This may lead to errors. (src/comm.cpp:727)
Per MPI rank memory allocation (min/avg/max) = 7.221 | 7.221 | 7.221 Mbytes
   Step          Temp         Density         Press          TotEng         PotEng         KinEng         E_pair         S/CPU     
       362   1              0.0023323615   0.0023090379   21.485548      20.000548      1.485          0              0            
      1000   0.90989032     0.0023323615  -0.0021940042   21.776974      20.425787      1.3511871      0.00036425437  78788.631    
      2000   0.86546688     0.0023323615   0.0034714157   21.677128      20.39191       1.2852183      0.0025814786   77954.122    
      3000   0.98199538     0.0023323615   0.0028144228   21.866132      20.407869      1.4582631      0.0011756043   73165.248    
      4000   1.004495       0.0023323615  -0.0014058211   21.945624      20.453949      1.4916751      0.011986179    70289.129    
      5000   1.1222705      0.0023323615   0.0044495116   21.986385      20.319813      1.6665718      0.0050317639   73103.081    
      6000   1.0538243      0.0023323615   0.0023957538   21.985713      20.420784      1.564929       0.012100514    74876.159    
      7000   1.0210598      0.0023323615  -0.00038820026  21.904665      20.388391      1.5162738      0              76810.549    
      8000   0.94819751     0.0023323615   0.0024943091   21.747889      20.339816      1.4080733      0              76673.716    
      9000   0.92364502     0.0023323615   0.0020053029   21.724166      20.352554      1.3716129      1.7780894e-05  75844.354    
     10000   0.86685188     0.0023323615   0.00078277366  21.644879      20.357604      1.287275       0.0098636418   76029.057    
     11000   1.0057103      0.0023323615   0.00010113276  21.8558        20.362321      1.4934798      0.020705341    76101.456    
     12000   0.97901664     0.0023323615  -0.0026996968   21.871206      20.417366      1.4538397      0.0052928539   75789.936    
     13000   0.97718436     0.0023323615  -6.1641422e-06  21.963706      20.512587      1.4511188      0.025022446    75654.766    
     14000   1.0530014      0.0023323615  -0.0009993112   21.947994      20.384287      1.5637071      0.0020860456   74887.502    
     15000   0.99094527     0.0023323615   0.0011068478   21.895146      20.423592      1.4715537      0.0015091113   76187.957    
     16000   0.91285091     0.0023323615  -0.00025424173  21.87524       20.519657      1.3555836      0.0047853639   75598.778    
     17000   0.82806978     0.0023323615  -0.00054698156  21.701984      20.472301      1.2296836      0              75430.926    
     18000   1.043278       0.0023323615  -6.6143919e-05  22.003299      20.454031      1.5492679      0.0034319132   76443.465    
     19000   1.0879249      0.0023323615  -0.0017804642   21.998985      20.383416      1.6155685      0.015376175    75097.898    
     20000   1.1144506      0.0023323615   0.0025198298   22.190904      20.535944      1.6549592      0              76129.781    
     21000   1.0427751      0.0023323615   0.0011345349   22.099492      20.550971      1.548521       0.00040047813  76482.128    
     22000   1.0586695      0.0023323615   0.0017882747   22.05673       20.484606      1.5721242      0              76077.678    
     23000   1.0058426      0.0023323615  -0.0055245362   21.954628      20.460951      1.4936763      0.0027619031   75610.176    
     24000   0.98273442     0.0023323615   0.0015147357   21.862067      20.402707      1.4593606      0              75919.468    
     25000   0.95835343     0.0023323615   0.0017808774   21.937761      20.514606      1.4231548      0.00020839942  75218.498    
     26000   0.93993778     0.0023323615  -0.0021777292   21.884849      20.489042      1.3958076      0.0088889834   75794.135    
     27000   0.9308188      0.0023323615  -0.00011239942  21.842252      20.459986      1.3822659      0.021612409    74397.14     
     28000   1.0149581      0.0023323615   0.0041996387   21.906846      20.399633      1.5072129      0.0064059022   75651.32     
     29000   0.92841138     0.0023323615  -2.5398808e-05  21.987185      20.608494      1.3786909      0.0046112484   75391.442    
     30000   1.021043       0.0023323615   0.001589158    22.097958      20.581709      1.5162489      0.016799508    73186.003    
     31000   1.0465985      0.0023323615  -0.0021744286   22.037917      20.483718      1.5541987      0.0057879149   76018.579    
     32000   0.98907108     0.0023323615  -0.0015558606   22.044089      20.575318      1.4687705      0.009448173    75642.21     
     33000   1.0918536      0.0023323615  -0.0025643847   22.039275      20.417873      1.6214025      0              74660.636    
     34000   0.99801543     0.0023323615   0.0016279766   21.932339      20.450286      1.4820529      0.017384617    77274.086    
     35000   1.0352271      0.0023323615  -0.0052971711   22.076004      20.538692      1.5373122      0.00010473809  75748.004    
     36000   1.1141579      0.0023323615  -0.00093279925  22.222491      20.567966      1.6545245      0.00033678641  76713.672    
     37000   1.0369415      0.0023323615   0.00013065175  22.217841      20.677983      1.5398581      0.013788831    75827.59     
     38000   1.0515596      0.0023323615   0.0021717558   22.070766      20.5092        1.561566       0.0067894678   76437.031    
     39000   1.0238495      0.0023323615   0.00026414509  22.040141      20.519725      1.5204165      0.00044464649  75490.653    
     40000   1.0749111      0.0023323615  -0.0026849368   22.039327      20.443084      1.596243       0.012651334    73917.2      
     41000   0.99070886     0.0023323615  -0.0030385564   22.03241       20.561207      1.4712027      0.00092855646  77100.146    
     42000   0.95315224     0.0023323615   0.0019788197   21.965263      20.549832      1.4154311      0.020233689    75668.591    
     43000   1.0644183      0.0023323615  -0.0011168725   22.287172      20.706511      1.5806611      0.039694129    75246.056    
     44000   1.0253747      0.0023323615  -0.006676522    22.066233      20.543552      1.5226814      0              74622.622    
     45000   0.94179556     0.0023323615  -0.0047206018   21.970644      20.572077      1.3985664      0.019869988    75035.462    
     46000   1.0083495      0.0023323615  -0.0017646918   21.972114      20.474715      1.497399       0.00026040605  75228.531    
     47000   0.98767959     0.0023323615  -0.00080218158  22.091674      20.62497       1.4667042      0.024266258    74885.876    
     48000   1.1473449      0.0023323615  -0.0025885687   22.080512      20.376705      1.7038072      0.00065962995  75326.923    
     49000   1.0679312      0.0023323615   0.0017688272   21.970482      20.384604      1.5858779      0.014142422    76535.261    
     50000   0.9581935      0.0023323615   0.0014398836   21.955202      20.532284      1.4229173      0.0055011948   76045.622    
     51000   1.0215759      0.0023323615  -0.00093292688  21.934681      20.41764       1.5170402      0              75960.2      
     52000   0.98079591     0.0023323615   0.0040701936   21.977374      20.520892      1.4564819      0.0020862422   76593.284    
     53000   1.0090927      0.0023323615   0.0013324753   22.095438      20.596935      1.4985027      0              75935.062    
     54000   0.97519627     0.0023323615   0.0013260734   22.070151      20.621984      1.4481665      0.026885444    76658.058    
     55000   1.1805087      0.0023323615  -0.001586238    22.424088      20.671033      1.7530554      0.024690954    76415.957    
     56000   0.98387121     0.0023323615   0.0037155145   22.104425      20.643376      1.4610487      0.01435493     75923.278    
     57000   1.0723812      0.0023323615  -0.0037916262   22.122726      20.53024       1.592486       0.013635549    76049.681    
     58000   1.0152349      0.0023323615   0.00021908047  22.082827      20.575203      1.5076238      0.00077375639  76038.376    
     59000   1.1424502      0.0023323615  -0.0052108657   22.30072       20.604182      1.6965385      0.013308184    76912.232    
     60000   1.0359703      0.0023323615  -0.00097887545  22.188218      20.649802      1.538416       0.00011346294  75169.104    
     61000   1.1646839      0.0023323615  -0.002085017    22.239945      20.51039       1.7295556      0.012918477    77543.695    
     62000   1.101836       0.0023323615   0.0010338878   22.171386      20.53516       1.6362265      0.001396566    76196.734    
     63000   0.96616435     0.0023323615   0.00097550571  21.903821      20.469067      1.4347541      0.013027663    77637.612    
     64000   1.0068907      0.0023323615  -0.0020278726   22.061652      20.566419      1.4952327      0.013750276    76049.791    
     65000   0.98723233     0.0023323615   0.0022441476   22.031073      20.565033      1.46604        0.0066686189   76350.553    
     66000   1.0273881      0.0023323615  -0.0003515278   22.183579      20.657908      1.5256713      0              74883.01     
     67000   0.96528212     0.0023323615  -0.00014822656  21.9396        20.506156      1.4334439      0.010365557    76768.66     
     68000   1.069702       0.0023323615   9.4754668e-05  22.081119      20.492611      1.5885075      0.00049153926  74111.437    
     69000   1.1229502      0.0023323615   0.0011504079   22.200329      20.532748      1.6675811      0.0068454249   76996.004    
     70000   1.0062775      0.0023323615  -0.00085311964  22.094021      20.599699      1.4943221      0.013222355    74462.797    
     71000   1.0906935      0.0023323615   0.00015260357  22.145362      20.525682      1.6196798      0.018338513    76193.884    
     72000   1.010401       0.0023323615  -6.0487182e-06  22.154105      20.653659      1.5004455      0.0013793953   74909.088    
     73000   1.1177599      0.0023323615  -0.0034084797   22.254435      20.594562      1.6598735      0.00011231735  77416.794    
     74000   0.9768019      0.0023323615   0.00016143893  22.07312       20.622569      1.4505508      0.0084515956   75486.146    
     75000   1.1360996      0.0023323615   0.002159116    22.161595      20.474487      1.6871079      0.0089909162   76032.647    
     76000   0.97379329     0.0023323615  -0.00068458621  21.988928      20.542845      1.446083       0              75495.11     
     77000   0.94876793     0.0023323615  -0.0016073976   21.923496      20.514575      1.4089204      0.017745108    75580.346    
     78000   0.83947996     0.0023323615  -0.00062768559  21.726727      20.480099      1.2466277      0.0054510099   76096.991    
     79000   1.0090614      0.0023323615  -0.00080262643  22.068192      20.569736      1.4984562      0.00023011166  76887.525    
     80000   1.1217643      0.0023323615  -0.0038177864   22.367902      20.702082      1.66582        0.032902439    75977.721    
     81000   1.0240158      0.0023323615   0.00023547123  22.031597      20.510933      1.5206635      0.0068767308   75678.515    
     82000   1.003236       0.0023323615  -0.0022802982   21.894199      20.404393      1.4898055      0.019136282    74893.234    
     83000   1.0554159      0.0023323615   0.004011718    22.104562      20.537269      1.5672927      0.0080869707   74311.508    
     84000   0.83527346     0.0023323615  -0.0034122221   21.874648      20.634267      1.2403811      0.0030083664   75634.641    
     85000   1.036002       0.0023323615   0.0013573923   21.962923      20.42446       1.5384629      0.015709144    76164.699    
     86000   0.9432002      0.0023323615  -0.0032183248   21.913588      20.512936      1.4006523      0.013730309    76287.526    
     87000   0.95566008     0.0023323615  -0.00049614223  21.91653       20.497375      1.4191552      0.0035862035   75207.445    
     88000   0.93373351     0.0023323615  -0.00097093893  21.870485      20.483891      1.3865943      0.0018212145   74722.734    
     89000   0.9684944      0.0023323615  -0.00047342045  21.973429      20.535215      1.4382142      0.00087524744  75085.075    
     90000   0.98293324     0.0023323615  -0.0032204602   22.050919      20.591263      1.4596559      0.015353933    76490.564    
     91000   1.0832827      0.0023323615   0.0048517083   22.11977       20.511095      1.6086749      0.0052867789   77446.952    
     92000   0.85899662     0.0023323615  -0.0013049519   21.765697      20.490087      1.27561        0.0024124001   76540.363    
     93000   0.96176266     0.0023323615  -4.4223672e-05  21.874222      20.446004      1.4282176      0.0045653365   77364.106    
     94000   0.96019503     0.0023323615   0.00024459347  21.944954      20.519064      1.4258896      3.8053462e-05  76790.932    
     95000   0.94702149     0.0023323615  -0.0033658915   21.86315       20.456823      1.4063269      0              77276.779    
     96000   0.91119348     0.0023323615  -0.0013197298   21.825018      20.471896      1.3531223      0.00043282989  75887.545    
     97000   1.0016687      0.0023323615  -0.0019514304   22.013024      20.525546      1.487478       0.0048369955   75584.756    
     98000   1.02143        0.0023323615  -0.0057874974   22.177965      20.661142      1.5168235      0              74343.887    
     99000   1.032786       0.0023323615   0.0018228259   21.975336      20.441649      1.5336871      7.1595851e-05  77282.16     
    100000   1.0594928      0.0023323615   0.0036169719   22.011024      20.437677      1.5733468      0.00032948157  75593.915    
    100362   1.1904942      0.0023323615  -0.00089755607  22.316856      20.548972      1.7678839      0.00063845255  74911.761    
Loop time of 1.31992 on 1 procs for 100000 steps with 100 atoms

Performance: 32729154.926 tau/day, 75761.933 timesteps/s
99.0% CPU use with 1 MPI tasks x 1 OpenMP threads

MPI task timing breakdown:
Section |  min time  |  avg time  |  max time  |%varavg| %total
---------------------------------------------------------------
Pair    | 0.049429   | 0.049429   | 0.049429   |   0.0 |  3.74
Bond    | 0.12548    | 0.12548    | 0.12548    |   0.0 |  9.51
Neigh   | 0.80396    | 0.80396    | 0.80396    |   0.0 | 60.91
Comm    | 0.05775    | 0.05775    | 0.05775    |   0.0 |  4.38
Output  | 0.0011257  | 0.0011257  | 0.0011257  |   0.0 |  0.09
Modify  | 0.24882    | 0.24882    | 0.24882    |   0.0 | 18.85
Other   |            | 0.03337    |            |       |  2.53

Nlocal:            100 ave         100 max         100 min
Histogram: 1 0 0 0 0 0 0 0 0 0
Nghost:             60 ave          60 max          60 min
Histogram: 1 0 0 0 0 0 0 0 0 0
Neighs:             36 ave          36 max          36 min
Histogram: 1 0 0 0 0 0 0 0 0 0

Total # of neighbors = 36
Ave neighs/atom = 0.36
Ave special neighs/atom = 1.98
Neighbor list builds = 9821
Dangerous builds = 8265
unfix           nvtSoft
unfix           rampSoft
reset_timestep  0

write_data      ${outputfile_relaxed}
write_data      5_relaxed.data
System init for write_data ...
Generated 0 of 6 mixed pair_coeff terms from geometric mixing rule
WARNING: Communication cutoff 1.3 is shorter than a bond length based estimate of 1.7550000000000001. This may lead to errors. (src/comm.cpp:727)
WARNING: Not all mixed pair coeffs generated from mixing. Use write_data with 'pair ij' option to store all pair coeffs. (src/write_data.cpp:309)

###########################################################################
# Full LJ with Coulomb
######################################################################

# Cutoffs and parameters:
# - Values: Marcel Verkade's Bachelor Thesis
# - Mapping to atom groups: Patrick Onck's paper
# - 1: aliphatic, 2: aromatic, 3: anion, 4: cation
# pair_style	lj/cut/coul/cut <lj_cut_global> <coul_cut_global>
# pair_coeff	<type_1>  <type_2>  <eps>  <sigma>  <r_cut_lj>  <r_cut_coul>

# Problem: Onck's model is much more complex, and Marcel has no sigma reported
# Using sigma=1 randomly

variable		glob_ljeps equal 1.0
variable		glob_ljsig 	equal 1.0
variable		glob_coulcut equal 10.0
variable		att_ljcut equal 2.50
variable		rep_ljcut equal 1.12

pair_style		lj/cut/coul/cut 						${att_ljcut} 	${glob_coulcut}
pair_style		lj/cut/coul/cut 						2.5 	${glob_coulcut}
pair_style		lj/cut/coul/cut 						2.5 	10
pair_coeff		1 1 	${glob_ljeps} 	${glob_ljsig}	${att_ljcut} 	${glob_coulcut}
pair_coeff		1 1 	1 	${glob_ljsig}	${att_ljcut} 	${glob_coulcut}
pair_coeff		1 1 	1 	1	${att_ljcut} 	${glob_coulcut}
pair_coeff		1 1 	1 	1	2.5 	${glob_coulcut}
pair_coeff		1 1 	1 	1	2.5 	10
pair_coeff		1 2 	${glob_ljeps} 	${glob_ljsig}	${att_ljcut} 	${glob_coulcut}
pair_coeff		1 2 	1 	${glob_ljsig}	${att_ljcut} 	${glob_coulcut}
pair_coeff		1 2 	1 	1	${att_ljcut} 	${glob_coulcut}
pair_coeff		1 2 	1 	1	2.5 	${glob_coulcut}
pair_coeff		1 2 	1 	1	2.5 	10
pair_coeff		1 3 	${glob_ljeps} 	${glob_ljsig}	${rep_ljcut} 	${glob_coulcut}
pair_coeff		1 3 	1 	${glob_ljsig}	${rep_ljcut} 	${glob_coulcut}
pair_coeff		1 3 	1 	1	${rep_ljcut} 	${glob_coulcut}
pair_coeff		1 3 	1 	1	1.12 	${glob_coulcut}
pair_coeff		1 3 	1 	1	1.12 	10
pair_coeff		1 4 	${glob_ljeps} 	${glob_ljsig}	${rep_ljcut} 	${glob_coulcut}
pair_coeff		1 4 	1 	${glob_ljsig}	${rep_ljcut} 	${glob_coulcut}
pair_coeff		1 4 	1 	1	${rep_ljcut} 	${glob_coulcut}
pair_coeff		1 4 	1 	1	1.12 	${glob_coulcut}
pair_coeff		1 4 	1 	1	1.12 	10
pair_coeff		2 2 	${glob_ljeps} 	${glob_ljsig}	${att_ljcut} 	${glob_coulcut}
pair_coeff		2 2 	1 	${glob_ljsig}	${att_ljcut} 	${glob_coulcut}
pair_coeff		2 2 	1 	1	${att_ljcut} 	${glob_coulcut}
pair_coeff		2 2 	1 	1	2.5 	${glob_coulcut}
pair_coeff		2 2 	1 	1	2.5 	10
pair_coeff		2 3 	${glob_ljeps} 	${glob_ljsig}	${rep_ljcut} 	${glob_coulcut}
pair_coeff		2 3 	1 	${glob_ljsig}	${rep_ljcut} 	${glob_coulcut}
pair_coeff		2 3 	1 	1	${rep_ljcut} 	${glob_coulcut}
pair_coeff		2 3 	1 	1	1.12 	${glob_coulcut}
pair_coeff		2 3 	1 	1	1.12 	10
pair_coeff		2 4 	${glob_ljeps} 	${glob_ljsig}	${att_ljcut} 	${glob_coulcut}
pair_coeff		2 4 	1 	${glob_ljsig}	${att_ljcut} 	${glob_coulcut}
pair_coeff		2 4 	1 	1	${att_ljcut} 	${glob_coulcut}
pair_coeff		2 4 	1 	1	2.5 	${glob_coulcut}
pair_coeff		2 4 	1 	1	2.5 	10
pair_coeff		3 3 	${glob_ljeps} 	${glob_ljsig}	${rep_ljcut} 	${glob_coulcut}
pair_coeff		3 3 	1 	${glob_ljsig}	${rep_ljcut} 	${glob_coulcut}
pair_coeff		3 3 	1 	1	${rep_ljcut} 	${glob_coulcut}
pair_coeff		3 3 	1 	1	1.12 	${glob_coulcut}
pair_coeff		3 3 	1 	1	1.12 	10
pair_coeff		3 4 	${glob_ljeps} 	${glob_ljsig}	${att_ljcut} 	${glob_coulcut}
pair_coeff		3 4 	1 	${glob_ljsig}	${att_ljcut} 	${glob_coulcut}
pair_coeff		3 4 	1 	1	${att_ljcut} 	${glob_coulcut}
pair_coeff		3 4 	1 	1	2.5 	${glob_coulcut}
pair_coeff		3 4 	1 	1	2.5 	10
pair_coeff		4 4 	${glob_ljeps} 	${glob_ljsig}	${rep_ljcut} 	${glob_coulcut}
pair_coeff		4 4 	1 	${glob_ljsig}	${rep_ljcut} 	${glob_coulcut}
pair_coeff		4 4 	1 	1	${rep_ljcut} 	${glob_coulcut}
pair_coeff		4 4 	1 	1	1.12 	${glob_coulcut}
pair_coeff		4 4 	1 	1	1.12 	10


fix             noDriftRot 	all momentum 10 linear 1 1 1 angular
fix             nvt1 		all nvt temp ${Temp} ${Temp} 0.5
fix             nvt1 		all nvt temp 1 ${Temp} 0.5
fix             nvt1 		all nvt temp 1 1 0.5

# dump          assemble 	all custom 1000 				${outputfile_selfasb} id type xu yu zu vx vy vz
dump            lindump 	all custom ${subsample_rate} 	${outputfile_trajlin} id type xu yu zu vx vy vz
dump            lindump 	all custom 1000 	${outputfile_trajlin} id type xu yu zu vx vy vz
dump            lindump 	all custom 1000 	6_b_trajlin.data id type xu yu zu vx vy vz

run             ${runtime}
run             1000000
Generated 0 of 6 mixed pair_coeff terms from geometric mixing rule
Neighbor list info ...
  update every 1 steps, delay 10 steps, check yes
  max neighbors/atom: 2000, page size: 100000
  master list distance cutoff = 10.3
  ghost atom cutoff = 10.3
  binsize = 5.15, bins = 7 7 7
  1 neighbor lists, perpetual/occasional/extra = 1 0 0
  (1) pair lj/cut/coul/cut, perpetual
      attributes: half, newton on
      pair build: half/bin/newton
      stencil: half/bin/3d
      bin: standard
Per MPI rank memory allocation (min/avg/max) = 7.712 | 7.712 | 7.712 Mbytes
   Step          Temp         Density         Press          TotEng         PotEng         KinEng         E_pair         S/CPU     
         0   1.1904942      0.0023323615  -0.0017268411   21.847774      20.07989       1.7678839     -0.4684444      0            
      1000   1.0135242      0.0023323615  -0.0014772624   21.104956      19.599873      1.5050834     -0.79035206     33420.815    
      2000   0.8298197      0.0023323615  -0.0027980313   20.909589      19.677307      1.2322823     -0.89874043     30247.163    
      3000   0.90790114     0.0023323615   0.00096955834  20.64741       19.299177      1.3482332     -1.1247646      26530.289    
      4000   0.97516029     0.0023323615   0.001971719    20.191709      18.743596      1.448113      -1.649224       20811.559    
      5000   0.9498546      0.0023323615  -0.0024061773   20.17515       18.764616      1.4105341     -1.6700729      18163.87     
      6000   0.95063152     0.0023323615   0.0043369572   19.793004      18.381316      1.4116878     -2.0544773      18156.228    
      7000   0.93886654     0.0023323615  -0.0045261283   20.152736      18.75852       1.3942168     -1.8682154      18075.576    
      8000   0.95957049     0.0023323615  -0.0010328287   19.855523      18.430561      1.4249622     -2.03675        17951.185    
      9000   1.051064       0.0023323615   0.00066715364  20.161082      18.600252      1.56083       -2.0596499      18004.549    
     10000   1.1477998      0.0023323615   0.0034122326   20.078252      18.37377       1.7044827     -2.1940344      18090.905    
     11000   1.0322304      0.0023323615  -0.00096427119  19.906294      18.373432      1.5328622     -2.0766653      17910.958    
     12000   0.92854131     0.0023323615  -2.7247146e-06  20.063256      18.684372      1.3788838     -1.8431142      17961.609    
     13000   0.9011727      0.0023323615  -0.00033412308  19.99834       18.660098      1.3382415     -1.8341377      18237.516    
     14000   0.80352079     0.0023323615   0.00056827352  19.78077       18.587542      1.1932284     -1.9039372      18233.635    
     15000   1.0216924      0.0023323615   0.0045717454   19.777262      18.260049      1.5172132     -2.1760009      18043.596    
     16000   1.0839239      0.0023323615   2.8147334e-05  20.006928      18.397301      1.609627      -2.1903945      17956.439    
     17000   0.9045335      0.0023323615   0.00023415358  19.956426      18.613194      1.3432323     -1.8987381      17939.544    
     18000   1.1556192      0.0023323615  -0.00016411364  20.155079      18.438984      1.7160945     -2.0161631      18056.222    
     19000   0.91036662     0.0023323615  -0.00018092863  19.755299      18.403405      1.3518944     -2.0512387      18067.112    
     20000   1.1954397      0.0023323615   0.0022362277   20.584239      18.809011      1.7752279     -1.7297449      18115.909    
     21000   0.93796201     0.0023323615  -0.0026280563   20.107328      18.714455      1.3928736     -1.8406929      18123.485    
     22000   1.0525945      0.0023323615  -0.00013126158  20.550093      18.98699       1.5631029     -1.6312123      18117.448    
     23000   1.0654229      0.0023323615   0.00078486519  20.148121      18.565968      1.582153      -1.8191656      18301.504    
     24000   1.0616798      0.0023323615  -0.0037098107   20.116254      18.53966       1.5765945     -1.9953782      18190.007    
     25000   1.0826164      0.0023323615   0.0029803476   20.114289      18.506604      1.6076854     -2.0399636      18060.933    
     26000   1.1110151      0.0023323615   0.0015944414   20.200043      18.550186      1.6498574     -1.9936822      18093.401    
     27000   1.0066801      0.0023323615   0.0011892822   19.862699      18.367779      1.4949199     -2.116982       18024.502    
     28000   0.8218578      0.0023323615  -0.0071217031   20.098319      18.87786       1.2204588     -1.7507871      17993.218    
     29000   0.90852454     0.0023323615  -0.0021747643   19.722126      18.372967      1.3491589     -2.0163014      18102.271    
     30000   1.1295902      0.0023323615   0.001082112    19.903689      18.226247      1.6774415     -2.2678543      18084.036    
     31000   1.100912       0.0023323615  -0.0021406687   19.819934      18.185079      1.6348543     -2.2153454      18075.975    
     32000   0.92883587     0.0023323615  -0.0058784744   19.694379      18.315058      1.3793213     -2.2192616      18018.541    
     33000   1.0613182      0.0023323615   0.0010638697   20.068066      18.492008      1.5760576     -2.066441       18118.296    
     34000   1.0335983      0.0023323615   0.00095193987  20.036502      18.501608      1.5348934     -2.0130953      18124.617    
     35000   1.0974975      0.0023323615   0.0011754944   20.062961      18.433177      1.6297837     -2.144752       18296.773    
     36000   0.94566414     0.0023323615  -0.0026725087   19.765465      18.361154      1.4043112     -2.0998054      18034.138    
     37000   1.0487893      0.0023323615   2.7022822e-05  20.150975      18.593523      1.5574521     -1.9558749      17902.775    
     38000   0.90040117     0.0023323615   0.0018110759   20.107284      18.770188      1.3370957     -1.6477505      18160.261    
     39000   1.0936032      0.0023323615  -0.0035110051   20.068871      18.44487       1.6240008     -2.0713016      18385.235    
     40000   1.0352464      0.0023323615  -0.00061096354  20.060439      18.523098      1.5373409     -2.0595838      18195.847    
     41000   0.97823875     0.0023323615  -0.001043733    20.146887      18.694203      1.4526845     -1.9216489      18235.153    
     42000   0.98806613     0.0023323615   0.0023650247   19.998095      18.530816      1.4672782     -1.8554613      18179.684    
     43000   1.0054129      0.0023323615  -0.00010079535  20.181856      18.688818      1.4930382     -1.8593937      18210.441    
     44000   1.098241       0.0023323615   0.00089594081  20.270055      18.639167      1.6308879     -1.9446628      18257.064    
     45000   0.99796832     0.0023323615   0.0015996131   19.971683      18.4897        1.481983      -2.0479284      18380.258    
     46000   0.96194948     0.0023323615   0.00080418207  19.900671      18.472176      1.428495      -1.9815306      18286.673    
     47000   1.0415464      0.0023323615  -0.00062177732  19.875804      18.329107      1.5466964     -2.1400296      18192.872    
     48000   0.98356953     0.0023323615  -0.0022692553   20.030065      18.569464      1.4606007     -1.92014        18268.161    
     49000   1.0480111      0.0023323615   0.0039317524   20.186147      18.62985       1.5562965     -1.8998634      18243.766    
     50000   1.01287        0.0023323615  -0.0027620706   20.117222      18.61311       1.5041119     -1.9256773      18335.668    
     51000   0.83525964     0.0023323615   0.00071087768  19.547138      18.306777      1.2403606     -2.1302691      18366.144    
     52000   0.99695158     0.0023323615   0.0048008109   19.95763       18.477157      1.4804731     -1.9887039      18226.04     
     53000   1.1369355      0.0023323615   0.00076281489  20.128719      18.440369      1.6883493     -2.0368764      18159.052    
     54000   1.0575559      0.0023323615   0.0037249359   19.799555      18.229085      1.5704705     -2.1358721      18201.999    
     55000   1.0204662      0.0023323615   0.0011440021   20.134457      18.619064      1.5153922     -1.8830369      18028.223    
     56000   1.0685827      0.0023323615  -0.0028487068   19.885361      18.298515      1.5868453     -2.1254201      18161.24     
     57000   1.0764874      0.0023323615  -0.00018860631  20.290134      18.69155       1.5985838     -1.920609       18223.923    
     58000   1.0378958      0.0023323615   0.0025861485   19.964263      18.422987      1.5412752     -1.9859951      18255.778    
     59000   1.0932856      0.0023323615   0.0007805009   20.438094      18.814565      1.6235291     -1.7417705      18224.386    
     60000   0.97084706     0.0023323615  -0.0026672807   20.086096      18.644389      1.4417079     -1.9211334      18270.258    
     61000   0.93448691     0.0023323615  -0.00021853268  20.142057      18.754344      1.3877131     -1.6892811      18295.177    
     62000   1.0294314      0.0023323615   0.00021354705  19.921717      18.393011      1.5287056     -2.0782575      18123.024    
     63000   1.1186374      0.0023323615  -0.007205832    20.035569      18.374393      1.6611765     -2.1029493      18132.134    
     64000   1.0289125      0.0023323615   0.00043159052  20.148017      18.620082      1.5279351     -1.883561       18105.761    
     65000   0.91917878     0.0023323615  -0.0015728816   20.016733      18.651752      1.3649805     -1.8993636      18295.576    
     66000   1.0164796      0.0023323615   0.00021800931  20.176416      18.666943      1.5094722     -1.8157369      18183.509    
     67000   1.0400322      0.0023323615   0.00091061855  19.99158       18.447132      1.5444478     -2.0101801      17961.273    
     68000   0.96726772     0.0023323615   0.0022520856   19.978905      18.542512      1.4363926     -1.94122        17998.782    
     69000   1.0945102      0.0023323615   0.0033214398   19.86824       18.242892      1.6253476     -2.2558227      18016.212    
     70000   0.94394407     0.0023323615   0.0031686325   19.844613      18.442856      1.4017569     -1.9959514      17902.213    
     71000   0.89808294     0.0023323615  -0.0029047701   19.851839      18.518186      1.3336532     -1.9710756      17948.473    
     72000   1.0577802      0.0023323615   0.00065801248  20.103205      18.532401      1.5708036     -1.9705993      18113.414    
     73000   0.90913925     0.0023323615   0.0020709694   19.984622      18.634551      1.3500718     -1.9148095      18031.952    
     74000   0.8956912      0.0023323615   0.00062749175  19.840296      18.510194      1.3301014     -1.9362471      18086.198    
     75000   0.96714761     0.0023323615  -0.0041970403   20.079062      18.642848      1.4362142     -1.8040766      17988.908    
     76000   1.037215       0.0023323615  -0.0067504985   20.08996       18.549696      1.5402643     -1.8244109      18196.581    
     77000   0.99527146     0.0023323615  -0.0040846249   20.05511       18.577132      1.4779781     -1.9494655      18083        
     78000   1.0268916      0.0023323615   0.0015829454   20.208111      18.683177      1.524934      -1.9557096      17858.45     
     79000   1.0478197      0.0023323615   0.0016868303   20.032771      18.476758      1.5560123     -1.9429472      18036.126    
     80000   1.0485782      0.0023323615  -0.0028270026   19.975226      18.418087      1.5571387     -2.0232965      18194.053    
     81000   1.0407808      0.0023323615  -0.0015436405   20.155101      18.609541      1.5455595     -1.8238157      18232.019    
     82000   0.9095479      0.0023323615  -0.004081332    20.006075      18.655397      1.3506786     -1.911265       17966.747    
     83000   1.0541647      0.0023323615   0.0036466161   20.113003      18.547569      1.5654346     -1.9792285      17997.419    
     84000   0.97043616     0.0023323615   0.00013286559  20.07399       18.632892      1.4410977     -1.9904162      17982.504    
     85000   0.94757103     0.0023323615   0.00097499888  19.977389      18.570246      1.407143      -1.9016959      18080.936    
     86000   1.1194851      0.0023323615  -0.00016913106  20.209197      18.546762      1.6624354     -1.8909433      18116.86     
     87000   0.99371509     0.0023323615  -0.00050335752  19.777762      18.302095      1.4756669     -2.1008334      18119.152    
     88000   0.92631158     0.0023323615  -0.00066277296  19.897471      18.521899      1.3755727     -1.892735       18191.851    
     89000   0.99765543     0.0023323615  -0.0003923624   20.039814      18.558295      1.4815183     -2.071554       18308.882    
     90000   0.87125019     0.0023323615   0.0015748436   19.762562      18.468755      1.2938065     -2.0248227      18186.12     
     91000   1.0792517      0.0023323615  -0.0050625555   20.333189      18.7305        1.6026887     -1.8891622      18056.904    
     92000   0.92927934     0.0023323615   0.0042976823   20.018116      18.638136      1.3799798     -1.9992747      17939.489    
     93000   1.0090427      0.0023323615   0.00011808855  19.916377      18.417949      1.4984284     -2.1307439      17778.003    
     94000   1.1028517      0.0023323615   0.0014666012   20.153625      18.515891      1.6377347     -1.9236714      18001.649    
     95000   0.98467867     0.0023323615  -0.0034607596   19.669899      18.207651      1.4622478     -2.1511631      18056.13     
     96000   0.96103522     0.0023323615  -0.0067175158   19.873007      18.44587       1.4271373     -2.0365512      18051.891    
     97000   0.88230132     0.0023323615  -0.0052556873   20.1445        18.834282      1.3102175     -1.7596662      18186.253    
     98000   0.9584109      0.0023323615   0.0024610231   19.893837      18.470597      1.4232402     -2.0062719      18290.339    
     99000   1.1618719      0.0023323615  -0.0022449375   20.357152      18.631772      1.7253797     -1.9087761      18141.872    
    100000   1.0429826      0.0023323615   0.00045170424  20.084194      18.535365      1.5488291     -1.9074028      18096.104    
    101000   1.0637885      0.0023323615  -0.00056639624  20.309697      18.729971      1.5797259     -1.8107257      18111.376    
    102000   0.90417701     0.0023323615   0.0019783437   20.275408      18.932705      1.3427029     -1.6506362      18102.114    
    103000   1.0363685      0.0023323615   0.0020527324   20.019408      18.4804        1.5390072     -1.9462483      17972.994    
    104000   0.99657431     0.0023323615   0.0018336332   19.843506      18.363593      1.4799129     -2.0020127      18212.212    
    105000   1.1319218      0.0023323615   0.00062081983  20.30786       18.626956      1.6809039     -1.8783118      18257.869    
    106000   0.98252924     0.0023323615  -0.0017760287   19.97557       18.516514      1.4590559     -1.9739705      18155.93     
    107000   0.89317637     0.0023323615   0.0019207828   19.789117      18.46275       1.3263669     -2.1070376      18032.008    
    108000   0.96009506     0.0023323615   0.0013669869   19.534737      18.108996      1.4257412     -2.3255684      17997.208    
    109000   0.93372066     0.0023323615  -0.00082284414  19.629567      18.242992      1.3865752     -2.2129195      18054.083    
    110000   0.94068199     0.0023323615  -0.00055586278  19.805264      18.408351      1.3969128     -2.0556418      17981.007    
    111000   0.90914616     0.0023323615   0.0018562358   19.833348      18.483266      1.3500821     -2.0942846      18159.531    
    112000   0.96816929     0.0023323615  -0.00082052226  19.90251       18.464779      1.4377314     -2.1028718      18096.153    
    113000   0.97242444     0.0023323615  -0.0039865009   20.000378      18.556328      1.4440503     -1.97868        18009.493    
    114000   0.93051315     0.0023323615   0.00037151658  20.029196      18.647384      1.381812      -1.9438588      18062.884    
    115000   0.91273181     0.0023323615   0.00079335967  19.668874      18.313467      1.3554067     -2.0552982      18151.49     
    116000   1.0120874      0.0023323615   0.00076460353  20.186223      18.683273      1.5029498     -1.8468757      18073.217    
    117000   1.0308604      0.0023323615   0.00020064657  20.226634      18.695807      1.5308277     -1.9027455      18156.228    
    118000   0.96522915     0.0023323615  -0.0018768068   19.969718      18.536352      1.4333653     -1.9568225      18201.571    
    119000   1.0843481      0.0023323615  -0.0040918953   20.105177      18.49492       1.610257      -2.0363638      18099.579    
    120000   0.97080288     0.0023323615  -0.0025058124   20.115983      18.674341      1.4416423     -1.9104985      18076.155    
    121000   0.98726226     0.0023323615  -0.00031493524  19.962475      18.49639       1.4660845     -1.9927912      18029.259    
    122000   0.99389431     0.0023323615   0.0031660351   19.950667      18.474734      1.475933      -2.0887872      17955.851    
    123000   1.1080814      0.0023323615  -0.00077603702  20.168282      18.522781      1.6455009     -1.9492139      18052.29     
    124000   1.0688146      0.0023323615  -0.0013851067   19.97797       18.39078       1.5871896     -2.1671481      18182.87     
    125000   0.88888404     0.0023323615   8.145201e-05   19.828632      18.508639      1.3199928     -1.9689862      17983.463    
    126000   0.92400068     0.0023323615  -0.0026050111   20.104868      18.732727      1.372141      -1.7579705      18304.544    
    127000   1.2357963      0.0023323615  -0.0020651396   20.383411      18.548254      1.8351575     -1.9689606      18118.244    
    128000   1.0957805      0.0023323615  -0.00064357139  20.250424      18.623189      1.6272341     -2.0115114      18108.366    
    129000   0.96254823     0.0023323615  -0.0016662803   19.989707      18.560323      1.4293841     -1.9729308      18033.741    
    130000   0.93713762     0.0023323615  -0.00334444     19.725809      18.33416       1.3916494     -2.1637532      17909.47     
    131000   1.1271796      0.0023323615   0.0006748361   20.151364      18.477503      1.6738617     -2.0773572      17866.096    
    132000   1.0636813      0.0023323615   0.0023072388   19.975721      18.396154      1.5795668     -1.9868828      17987.167    
    133000   1.0451415      0.0023323615  -0.0001610781   20.114853      18.562818      1.5520352     -1.8473747      18035.331    
    134000   0.89118509     0.0023323615   0.0018939636   19.618986      18.295576      1.3234099     -2.1649954      18133.059    
    135000   1.0294577      0.0023323615  -0.0021941352   20.233146      18.704401      1.5287447     -1.9294842      18203.49     
    136000   0.94749997     0.0023323615  -0.0015758933   19.977322      18.570284      1.4070375     -2.0129581      18109.976    
    137000   1.0554248      0.0023323615  -0.0017581831   20.271178      18.703872      1.5673059     -1.889475       17964.266    
    138000   0.887776       0.0023323615   0.0038361968   19.680719      18.362372      1.3183474     -2.1267615      18016.342    
    139000   1.0505229      0.0023323615   0.0037784312   20.092246      18.532219      1.5600265     -1.9689223      17980.275    
    140000   0.93296347     0.0023323615   0.0020833507   19.894957      18.509506      1.3854508     -1.8895904      18144.785    
    141000   0.94282149     0.0023323615  -0.0021987199   19.932041      18.531952      1.4000899     -2.0279389      18047.24     
    142000   1.0797271      0.0023323615  -0.0023571968   19.832971      18.229576      1.6033948     -2.2515591      17997.91     
    143000   1.0871239      0.0023323615   0.0027530395   20.058554      18.444175      1.614379      -2.0189829      17951.13     
    144000   1.0216588      0.0023323615  -0.0014391846   20.057759      18.540596      1.5171633     -1.9174961      18012.409    
    145000   0.9850373      0.0023323615   0.00062742355  20.173749      18.710968      1.4627804     -1.8297731      18172.998    
    146000   1.060699       0.0023323615   0.0051074212   20.307769      18.732631      1.575138      -1.8014709      18251.031    
    147000   0.96786707     0.0023323615  -0.0043348799   19.784839      18.347556      1.4372826     -2.1100775      18313.915    
    148000   1.0356186      0.0023323615   0.0003580092   19.896413      18.358519      1.5378936     -2.1252418      18053.207    
    149000   1.2015637      0.0023323615  -0.001459673    20.154602      18.37028       1.7843221     -2.0110738      18217.757    
    150000   1.027101       0.0023323615   0.00092205114  19.962856      18.437611      1.525245      -2.0733414      18080.281    
    151000   0.94537324     0.0023323615   0.0024461888   20.007489      18.60361       1.4038793     -2.0020774      18146.995    
    152000   1.0407545      0.0023323615   0.0031214741   20.267912      18.722391      1.5455204     -1.7331813      18075.805    
    153000   1.1570187      0.0023323615   0.0074016723   20.236933      18.518761      1.7181728     -1.8757439      18056.467    
    154000   0.89789496     0.0023323615  -0.0046986955   19.899261      18.565887      1.333374      -2.043709       18056.369    
    155000   1.0630615      0.0023323615   0.00033519682  20.170207      18.591561      1.5786463     -1.9754412      18107.263    
    156000   1.0766417      0.0023323615   0.0012394876   20.18141       18.582597      1.5988129     -1.9411888      17950.646    
    157000   0.96992661     0.0023323615  -0.00061245735  19.722972      18.282631      1.440341      -2.1971919      17977.118    
    158000   1.034753       0.0023323615   0.00048827601  19.885806      18.349198      1.5366083     -2.0314327      18065.817    
    159000   0.91856783     0.0023323615   0.0026592663   19.922091      18.558018      1.3640732     -1.9687965      18022.12     
    160000   1.2418712      0.0023323615  -0.0014163196   20.344205      18.500026      1.8441788     -2.0748147      18159.026    
    161000   1.0612641      0.0023323615   0.00075633414  19.82027       18.244292      1.5759772     -2.2584603      18155.898    
    162000   1.0242508      0.0023323615  -0.0046072086   20.157374      18.636362      1.5210125     -1.9237982      18135.264    
    163000   0.99499694     0.0023323615  -2.3812822e-05  19.703667      18.226096      1.4775705     -2.2055777      18092.693    
    164000   0.82319267     0.0023323615  -0.0028978766   19.822118      18.599677      1.2224411     -2.0643964      18151.437    
    165000   1.0254676      0.0023323615  -0.00023929524  19.907907      18.385087      1.5228194     -2.1048424      18206.023    
    166000   1.0323773      0.0023323615   0.0013412928   19.997642      18.464562      1.5330803     -2.0626112      18144.762    
    167000   1.1414784      0.0023323615   0.001710865    20.365033      18.669937      1.6950954     -1.8002586      18226.872    
    168000   1.1615303      0.0023323615  -0.0018554707   20.120835      18.395962      1.7248726     -2.1545927      18163.064    
    169000   0.960381       0.0023323615  -0.0016579128   19.808401      18.382235      1.4261658     -2.1171585      17988.863    
    170000   0.91142585     0.0023323615  -0.0024161201   19.762596      18.409129      1.3534674     -2.0705885      18065.035    
    171000   1.030122       0.0023323615   0.002083183    19.930773      18.401042      1.5297312     -2.0861989      18105.486    
    172000   0.91569453     0.0023323615   0.00019189424  19.891869      18.532063      1.3598064     -2.181307       17947.179    
    173000   0.9446823      0.0023323615  -0.0035440092   20.138062      18.735209      1.4028532     -1.8906003      17940.756    
    174000   0.98138968     0.0023323615   0.00077283045  19.991686      18.534323      1.4573637     -2.0387115      18075.226    
    175000   0.96672739     0.0023323615   0.0011504556   19.930684      18.495094      1.4355902     -1.9864653      18030.001    
    176000   1.0829177      0.0023323615   0.0018165028   19.955607      18.347474      1.6081328     -2.03146        18035.928    
    177000   0.84064493     0.0023323615  -0.00084769484  19.474334      18.225976      1.2483577     -2.1523965      17953.603    
    178000   1.0228123      0.0023323615   0.0045471319   19.931305      18.412429      1.5188762     -2.1155043      18037.916    
    179000   1.0242552      0.0023323615  -0.00038019295  19.847938      18.326919      1.5210189     -2.1549657      18011.67     
    180000   1.0143479      0.0023323615  -0.0010001142   19.875401      18.369094      1.5063066     -2.1113235      18029.086    
    181000   1.131864       0.0023323615   0.0021285217   20.146705      18.465887      1.680818      -2.042233       18097.059    
    182000   0.88735017     0.0023323615  -0.0004249474   20.043628      18.725913      1.317715      -1.7284332      18143.257    
    183000   0.88558452     0.0023323615  -0.0020679239   20.029731      18.714638      1.315093      -1.9279605      18145.457    
    184000   1.1064014      0.0023323615  -0.0033850998   20.286161      18.643155      1.6430061     -1.930591       18291.911    
    185000   1.0704195      0.0023323615  -0.00019750406  20.000905      18.411332      1.5895729     -2.0919556      18241.165    
    186000   0.95484778     0.0023323615   0.00083869711  19.815918      18.397969      1.417949      -2.1683742      18174.444    
    187000   0.93752285     0.0023323615   0.0025170824   19.752387      18.360165      1.3922214     -2.0547142      17990.085    
    188000   1.0832893      0.0023323615  -0.0030464152   20.008674      18.39999       1.6086847     -2.0439603      18092.821    
    189000   0.79725373     0.0023323615  -0.0041935759   19.5811        18.397178      1.1839218     -2.0597226      18012.122    
    190000   1.0328128      0.0023323615  -0.00064500895  20.099804      18.566077      1.5337271     -1.9261708      18095.313    
    191000   0.90698554     0.0023323615  -0.00545663     19.973898      18.627025      1.3468735     -1.8931774      18030.04     
    192000   1.0135859      0.0023323615   0.0024855122   19.952573      18.447398      1.505175      -2.0046291      18137.02     
    193000   1.0333449      0.0023323615  -0.0034839665   20.372253      18.837736      1.5345172     -1.6547243      18000.769    
    194000   0.88460179     0.0023323615  -0.0011094179   19.482202      18.168568      1.3136337     -2.1920648      17895.534    
    195000   0.9287332      0.0023323615  -0.00042491902  19.734298      18.355129      1.3791688     -2.2551843      17931.706    
    196000   0.94414015     0.0023323615  -0.0008138424   19.784029      18.381981      1.4020481     -2.2441103      17964.244    
    197000   0.93893573     0.0023323615  -0.0010044733   19.972899      18.578579      1.3943196     -1.8277281      17890.135    
    198000   0.89372213     0.0023323615   0.00028303443  19.663391      18.336214      1.3271774     -2.1332799      17944.978    
    199000   0.93770473     0.0023323615  -0.00092353689  20.255039      18.862548      1.3924915     -1.6788611      17927.274    
    200000   1.0614789      0.0023323615  -0.0013159288   20.139302      18.563006      1.5762961     -1.9952857      17929.258    
    201000   1.0526184      0.0023323615   0.00026383669  19.923835      18.360697      1.5631384     -2.0991112      17994.324    
    202000   0.88605776     0.0023323615  -0.001600578    20.01188       18.696084      1.3157958     -2.0092338      17966.511    
    203000   0.81400265     0.0023323615   0.0012329523   19.932226      18.723432      1.2087939     -1.8803204      18029.36     
    204000   1.138792       0.0023323615   0.0027745189   20.673392      18.982286      1.6911061     -1.4443457      17848.512    
    205000   1.0718111      0.0023323615  -0.00032339743  20.235931      18.644292      1.5916394     -1.9067169      18074.496    
    206000   1.0962563      0.0023323615   0.0022609712   20.177677      18.549737      1.6279407     -1.9538436      18007.014    
    207000   0.98248321     0.0023323615   0.0045521363   19.736204      18.277216      1.4589876     -2.1998007      17966.74     
    208000   0.9616604      0.0023323615  -0.0012714873   20.010251      18.582185      1.4280657     -1.9854924      17934.96     
    209000   1.0804155      0.0023323615   0.0015389031   20.128178      18.523761      1.604417      -2.062325       17991.651    
    210000   1.0172433      0.0023323615   0.0026137192   19.913869      18.403263      1.5106063     -2.1355322      17968.241    
    211000   1.1307384      0.0023323615   0.0033114566   20.074902      18.395755      1.6791465     -2.0635817      18026.631    
    212000   0.95735588     0.0023323615   0.0015017227   19.687893      18.266219      1.4216735     -2.127274       18094.835    
    213000   0.9154025      0.0023323615  -0.0027605943   19.618387      18.259015      1.3593727     -2.1770631      18079.721    
    214000   1.0361655      0.0023323615   0.0017738948   20.079679      18.540973      1.5387058     -1.9999963      17962.925    
    215000   0.97492797     0.0023323615   0.0010574408   20.132236      18.684468      1.447768      -1.8491171      18129.341    
    216000   0.96434933     0.0023323615   0.001183122    20.01871       18.586651      1.4320587     -1.9369862      18195.502    
    217000   0.94702282     0.0023323615   0.0011051628   19.907498      18.501169      1.4063289     -1.9815362      18188.894    
    218000   1.0452549      0.0023323615  -0.0017631654   19.9127        18.360496      1.5522036     -2.1160754      18068.79     
    219000   0.99184258     0.0023323615   0.00066145298  19.925115      18.452229      1.4728862     -2.1423732      18031.011    
    220000   0.87509399     0.0023323615  -0.0029810013   19.684079      18.384564      1.2995146     -2.1022319      17926.697    
    221000   1.0608935      0.0023323615  -0.00098659131  20.32875       18.753324      1.5754269     -1.8379407      17969.797    
    222000   0.95692954     0.0023323615  -0.0063996377   20.037523      18.616482      1.4210404     -1.8859961      17878.945    
    223000   0.9758364      0.0023323615  -0.0039073041   19.927425      18.478308      1.4491171     -2.054202       18049.355    
    224000   0.99763462     0.0023323615   0.00095189009  19.920034      18.438547      1.4814874     -2.0292958      18018.85     
    225000   0.94889261     0.0023323615  -0.0035196365   19.923902      18.514796      1.4091055     -1.9930791      18099.011    
    226000   0.99759888     0.0023323615  -0.0014962328   20.209438      18.728004      1.4814343     -1.7666524      18154.798    
    227000   0.84975395     0.0023323615   0.0044704647   19.767747      18.505863      1.2618846     -2.150028       18295.411    
    228000   1.0398905      0.0023323615   0.0024530765   20.164899      18.620662      1.5442374     -1.9297834      18155.442    
    229000   0.94502266     0.0023323615   0.00070116472  19.825071      18.421712      1.4033586     -2.0610602      18263.879    
    230000   1.0533412      0.0023323615  -0.001060293    19.941859      18.377647      1.5642117     -2.2627992      18131.725    
    231000   0.95218137     0.0023323615  -0.00058931801  20.104189      18.6902        1.4139893     -1.9536407      17996.128    
    232000   1.0128127      0.0023323615   0.0012368085   19.789595      18.285568      1.5040269     -2.3296964      18062.018    
    233000   1.041035       0.0023323615   0.0024423331   19.800013      18.254076      1.545937      -2.1998661      17990.805    
    234000   0.92266216     0.0023323615   0.006078066    19.980164      18.610011      1.3701533     -1.8410599      18140.201    
    235000   1.0072442      0.0023323615  -0.0026334377   20.154398      18.65864       1.4957576     -1.8571472      18126.703    
    236000   1.0507647      0.0023323615   0.00030546336  20.115233      18.554847      1.5603856     -1.8967159      18163.652    
    237000   0.98086371     0.0023323615   0.0020605609   19.569222      18.112639      1.4565826     -2.2364628      18051.856    
    238000   1.1848958      0.0023323615   0.00070716082  20.134306      18.374735      1.7595702     -2.1002642      18036.146    
    239000   0.84234539     0.0023323615   0.0043795996   19.90642       18.655537      1.2508829     -1.9393261      18060.224    
    240000   0.89805282     0.0023323615   0.001900987    19.844009      18.5104        1.3336084     -2.0025049      18032.216    
    241000   0.99056506     0.0023323615  -0.0032036087   19.79929       18.328301      1.4709891     -2.147513       18052.332    
    242000   1.0136179      0.0023323615   0.0011153575   20.038567      18.533345      1.5052226     -1.9344795      18080.049    
    243000   1.1244091      0.0023323615   0.0011795469   20.503416      18.833668      1.6697474     -1.6546227      18133.475    
    244000   0.96127187     0.0023323615  -0.0052702587   19.973572      18.546084      1.4274887     -1.9911364      18077.21     
    245000   0.96131445     0.0023323615   0.004213341    20.064985      18.637433      1.427552      -1.8403914      18019.472    
    246000   0.96086888     0.0023323615   0.0031706792   20.280513      18.853623      1.4268903     -1.7241823      18041.28     
    247000   1.0733238      0.0023323615   0.007402019    20.031962      18.438076      1.5938859     -2.0112167      18253.859    
    248000   0.93259141     0.0023323615   0.001070816    20.085086      18.700188      1.3848982     -1.8567492      18152.747    
    249000   0.99776989     0.0023323615  -0.0015933822   20.131809      18.65012       1.4816883     -1.7424232      18128.771    
    250000   0.87542886     0.0023323615   0.00026649265  19.86712       18.567108      1.3000119     -2.0389769      18099.376    
    251000   0.89627222     0.0023323615   0.0030859868   19.837278      18.506313      1.3309642     -2.0199002      18158.048    
    252000   1.0011351      0.0023323615   0.0035764682   20.157289      18.670603      1.4866857     -1.8468048      18208.132    
    253000   1.0526487      0.0023323615   0.0016156179   19.993728      18.430544      1.5631833     -2.0289551      18128.765    
    254000   1.0783427      0.0023323615   0.0011921479   19.973018      18.371679      1.6013389     -2.2003613      18014.213    
    255000   1.0232434      0.0023323615   0.00097503718  20.079002      18.559486      1.5195164     -1.9618635      18067.759    
    256000   0.98892331     0.0023323615   0.0022053579   20.030675      18.562124      1.4685511     -1.8692176      18072.084    
    257000   0.93448316     0.0023323615  -0.0058265674   20.167111      18.779404      1.3877075     -1.9020716      18035.136    
    258000   0.95111946     0.0023323615  -0.0019315842   20.178988      18.766576      1.4124124     -1.7643153      18003.506    
    259000   1.181947       0.0023323615   0.0052044436   20.487696      18.732505      1.7551913     -1.7713991      18132.16     
    260000   1.0306499      0.0023323615  -0.0020286622   20.078385      18.54787       1.530515      -2.0001376      18107.348    
    261000   0.96880557     0.0023323615  -0.0020218287   19.846756      18.40808       1.4386763     -2.1798969      18008.249    
    262000   1.0281041      0.0023323615   0.0054582399   20.002896      18.476162      1.5267346     -2.0642297      18038.76     
    263000   1.0368805      0.0023323615  -0.00019794178  19.83228       18.292512      1.5397675     -2.2189524      18054.35     
    264000   1.1176989      0.0023323615  -0.0047197814   20.403009      18.743226      1.6597829     -1.8843038      18068.306    
    265000   1.0102288      0.0023323615   0.0021862867   19.793449      18.29326       1.5001898     -2.1467587      18029.346    
    266000   0.87037539     0.0023323615   0.0034460881   19.534644      18.242137      1.2925075     -2.2279079      18030.402    
    267000   0.92124413     0.0023323615  -0.0014469496   19.994029      18.625981      1.3680475     -1.907007       18210.872    
    268000   0.92913908     0.0023323615   0.0024407492   19.962702      18.582931      1.3797715     -1.8980466      18138.444    
    269000   1.0009352      0.0023323615  -0.0018109686   20.127711      18.641323      1.4863888     -1.9186726      17969.703    
    270000   1.1072403      0.0023323615   0.00061804318  20.034213      18.389961      1.6442518     -2.1456699      18016.128    
    271000   0.97558489     0.0023323615   0.0011712685   19.742149      18.293405      1.4487436     -2.1644234      18117.448    
    272000   1.0461878      0.0023323615  -0.0015330209   20.121496      18.567907      1.5535889     -1.9720863      18014.563    
    273000   1.0260497      0.0023323615   0.002267541    20.076113      18.552429      1.5236838     -1.9803246      18029.838    
    274000   1.0951402      0.0023323615  -0.00086744943  20.091899      18.465616      1.6262832     -2.0178487      18206.345    
    275000   0.88274683     0.0023323615  -0.0003782994   19.697347      18.386468      1.310879      -2.2175106      18146.381    
    276000   1.0603587      0.0023323615  -0.00025736538  20.167511      18.592878      1.5746327     -1.9462593      18147.229    
    277000   1.0775964      0.0023323615  -8.2098771e-05  20.062099      18.461868      1.6002307     -1.9889967      18038.464    
    278000   1.0616256      0.0023323615   0.0013527048   20.288123      18.711609      1.576514      -1.793106       17973.852    
    279000   1.0890755      0.0023323615   0.00047007345  20.138158      18.520881      1.617277      -1.9862416      18072.824    
    280000   1.1269023      0.0023323615  -0.0055732303   20.251262      18.577812      1.6734499     -1.9883014      17974.619    
    281000   1.0190163      0.0023323615  -0.0020054389   20.100715      18.587476      1.5132392     -1.9427441      17986.879    
    282000   0.86867779     0.0023323615   0.0017104559   19.793844      18.503858      1.2899865     -2.0257434      18104.097    
    283000   0.7760365      0.0023323615  -0.00019774112  19.575248      18.422834      1.1524142     -2.0387181      18006.851    
    284000   1.0009309      0.0023323615  -0.0018087368   19.722305      18.235922      1.4863824     -2.2753568      18022.891    
    285000   1.0987762      0.0023323615   0.0017768146   20.061839      18.430157      1.6316826     -2.0547078      18013.406    
    286000   0.98094169     0.0023323615   0.00083380989  20.019013      18.562314      1.4566984     -2.0690583      18043.658    
    287000   0.89820305     0.0023323615   0.0008635789   19.812521      18.47869       1.3338315     -1.977603       18051.937    
    288000   0.91925543     0.0023323615  -0.00066302083  19.797176      18.432082      1.3650943     -2.1331853      17956.995    
    289000   0.97375941     0.0023323615   0.0022735717   19.839121      18.393089      1.4460327     -2.153285       17837.571    
    290000   0.96588501     0.0023323615   0.0023861072   19.644266      18.209927      1.4343392     -2.283163       18059.747    
    291000   1.0421692      0.0023323615  -0.0003780028   20.01347       18.465849      1.5476213     -2.0332532      18097.193    
    292000   0.91533543     0.0023323615   0.00040518638  19.701903      18.34263       1.3592731     -2.1134598      18080.966    
    293000   1.0934302      0.0023323615  -0.00020261568  19.945841      18.322097      1.6237438     -2.1253156      18144.88     
    294000   0.9571376      0.0023323615  -0.00036125774  19.686531      18.265181      1.4213493     -2.2814893      17977.179    
    295000   0.9593315      0.0023323615   0.00050321408  19.992366      18.567759      1.4246073     -1.9369059      18121.004    
    296000   1.1204515      0.0023323615  -0.0015348891   20.27663       18.61276       1.6638705     -1.9590516      18199.397    
    297000   1.026924       0.0023323615   0.0015378647   19.890956      18.365974      1.5249822     -2.2094236      18062.793    
    298000   1.009127       0.0023323615  -9.745077e-08   20.032091      18.533538      1.4985535     -1.9635763      18102.087    
    299000   1.1392088      0.0023323615  -0.001871581    20.316315      18.62459       1.6917251     -1.910686       18144.857    
    300000   0.9699214      0.0023323615  -6.3582319e-05  20.174756      18.734422      1.4403333     -1.7106593      17809.623    
    301000   1.0135532      0.0023323615  -0.001438523    20.20339       18.698264      1.5051266     -1.7943327      18009.399    
    302000   0.96091184     0.0023323615  -0.0021004768   19.911952      18.484998      1.4269541     -1.987231       18083.446    
    303000   0.91863977     0.0023323615  -6.4055872e-05  19.918825      18.554645      1.3641801     -1.9504247      18050.628    
    304000   0.88207898     0.0023323615   0.0015940979   19.903717      18.59383       1.3098873     -2.0553532      17831.354    
    305000   1.1200429      0.0023323615  -0.00018081901  19.962299      18.299035      1.6632637     -2.1270146      18031.627    
    306000   1.069009       0.0023323615   0.0040058365   20.342526      18.755047      1.5874784     -1.8144567      18062.734    
    307000   1.0402475      0.0023323615  -0.001544464    19.981895      18.437128      1.5447676     -2.0370938      18099.304    
    308000   0.97401808     0.0023323615  -9.0174945e-06  19.959503      18.513086      1.4464168     -2.0545279      18057.378    
    309000   0.93029801     0.0023323615  -0.0028575617   19.941676      18.560183      1.3814925     -2.1340292      18128.992    
    310000   1.0180077      0.0023323615   0.0030318779   19.765801      18.254059      1.5117414     -2.2494074      18065.231    
    311000   0.94195995     0.0023323615   0.001075674    19.94166       18.54285       1.3988105     -2.0473552      18108.248    
    312000   1.0251834      0.0023323615  -0.00017367141  20.50744       18.985042      1.5223974     -1.6449135      18182.698    
    313000   0.93959293     0.0023323615   0.0042943099   19.933025      18.537729      1.3952955     -2.0164169      18210.766    
    314000   1.0284841      0.0023323615   0.0010367842   19.81789       18.290591      1.5272989     -2.1859207      18067.331    
    315000   0.97146564     0.0023323615   3.7543074e-05  19.83679       18.394164      1.4426265     -2.1195284      18162.627    
    316000   1.0174058      0.0023323615  -0.0014039399   20.303387      18.792539      1.5108475     -1.6986136      18089.693    
    317000   1.1079595      0.0023323615   0.00013683701  20.28364       18.63832       1.6453199     -1.9210027      18288.161    
    318000   1.026211       0.0023323615  -0.0044386818   20.221306      18.697383      1.5239233     -1.8151956      18316.811    
    319000   1.0615678      0.0023323615  -0.0010115313   20.190506      18.614078      1.5764281     -1.9206497      18259.178    
    320000   0.89679741     0.0023323615  -0.00078760244  20.067552      18.735808      1.3317442     -1.7980344      18212.956    
    321000   1.0461128      0.0023323615  -0.0021352459   20.186014      18.632536      1.5534776     -1.9450165      18080.878    
    322000   1.0116878      0.0023323615   0.0024204938   20.107801      18.605444      1.5023563     -1.9109387      18262.325    
    323000   1.0166157      0.0023323615  -0.0046941621   20.29528       18.785605      1.5096743     -1.8096833      18162.518    
    324000   1.011199       0.0023323615  -0.0014053527   19.896349      18.394718      1.5016305     -2.0880365      18101.408    
    325000   0.9124204      0.0023323615   0.00148781     19.923668      18.568724      1.3549443     -1.8907488      18227.564    
    326000   1.0567007      0.0023323615  -0.0015604233   20.16272       18.59352       1.5692006     -1.9274531      18178.35     
    327000   0.99691959     0.0023323615   0.0016950213   20.041105      18.560679      1.4804256     -1.9347217      18071.014    
    328000   1.057773       0.0023323615   0.0026217472   20.601713      19.030921      1.5707928     -1.7177196      18205.611    
    329000   0.92641922     0.0023323615  -0.0007920962   19.78837       18.412638      1.3757325     -2.0670068      18163.292    
    330000   1.0509565      0.0023323615  -0.00080985008  20.046408      18.485738      1.5606705     -2.1158679      18228.313    
    331000   0.95905836     0.0023323615   0.0014129567   19.708304      18.284103      1.4242017     -2.1694615      18224.499    
    332000   1.031139       0.0023323615  -0.0018113152   20.131227      18.599986      1.5312414     -1.9563756      18214.967    
    333000   0.96201841     0.0023323615   0.0019701242   19.869924      18.441327      1.4285973     -2.0612547      18096.344    
    334000   1.0497021      0.0023323615   0.003685613    19.893508      18.334701      1.5588077     -2.2227225      18203.337    
    335000   0.95289745     0.0023323615  -0.0016805969   20.140179      18.725127      1.4150527     -1.9483334      18210.149    
    336000   1.0416805      0.0023323615  -0.0020182753   20.128834      18.581938      1.5468956     -1.9253409      17969.389    
    337000   1.1541083      0.0023323615   0.0005792007   20.320373      18.606522      1.7138508     -1.8530345      18026.95     
    338000   0.89670242     0.0023323615   0.0017507917   19.934062      18.602459      1.3316031     -1.9442505      18089.538    
    339000   0.94247719     0.0023323615  -0.00086416785  20.238785      18.839206      1.3995786     -1.8658821      18152.668    
    340000   1.1814566      0.0023323615   0.00051451997  20.315647      18.561184      1.754463      -1.9342627      18094.644    
    341000   1.0193884      0.0023323615   0.0012348779   19.733042      18.21925       1.5137917     -2.1896499      17965.851    
    342000   0.99529168     0.0023323615   0.0012045242   19.873636      18.395627      1.4780082     -2.1220346      17995.771    
    343000   1.0215353      0.0023323615   0.00055776113  19.800917      18.283937      1.51698       -2.1651854      18076.587    
    344000   1.0086207      0.0023323615   0.0017837779   19.900769      18.402967      1.4978017     -2.1025932      18019.689    
    345000   1.1058855      0.0023323615  -0.0023753218   20.117859      18.475619      1.6422399     -2.023861       17931.686    
    346000   1.0461533      0.0023323615   0.00058914105  20.067497      18.513959      1.5535376     -2.0789902      17945.488    
    347000   0.97773171     0.0023323615  -0.0012788549   19.877252      18.42532       1.4519316     -2.097459       17949.154    
    348000   0.84779113     0.0023323615  -0.00072308045  19.679963      18.420994      1.2589698     -1.9539219      17963.988    
    349000   0.89017763     0.0023323615  -0.00060867639  19.702648      18.380734      1.3219138     -2.0074301      17982.083    
    350000   0.95748921     0.0023323615   0.0062988027   19.906226      18.484354      1.4218715     -2.1006136      18047.165    
    351000   0.91999273     0.0023323615  -0.0034242728   19.660001      18.293812      1.3661892     -2.1804026      17924.238    
    352000   0.90637873     0.0023323615   0.0029208797   19.669876      18.323904      1.3459724     -2.2364091      18033.435    
    353000   0.93781513     0.0023323615   0.00068178017  20.011316      18.618661      1.3926555     -2.0374405      18215.465    
    354000   1.0235094      0.0023323615   0.0050610935   19.952231      18.432319      1.5199115     -2.1399982      18506.206    
    355000   1.0479694      0.0023323615  -0.002505194    20.188538      18.632303      1.5562345     -1.9905622      18400.941    
    356000   0.94650283     0.0023323615  -0.00086470194  19.82146       18.415904      1.4055567     -2.1179975      18142.756    
    357000   1.0531152      0.0023323615  -0.00040041852  20.05292       18.489044      1.563876      -2.0142046      18292.27     
    358000   1.0120377      0.0023323615   0.004941947    19.900162      18.397286      1.502876      -1.99916        18229.988    
    359000   1.0195981      0.0023323615   0.0040667034   20.129282      18.615179      1.5141031     -1.8771881      18325.313    
    360000   0.92879793     0.0023323615   0.0013563754   19.768919      18.389654      1.3792649     -2.1573591      18133.365    
    361000   1.1189426      0.0023323615   0.0034855885   20.342971      18.681341      1.6616297     -1.8594906      18235.33     
    362000   1.0069542      0.0023323615   0.0016383465   20.04442       18.549093      1.495327      -1.9533667      18127.767    
    363000   1.1092516      0.0023323615   0.003545535    20.006517      18.359278      1.6472386     -2.199917       17924.621    
    364000   0.90517525     0.0023323615  -0.0021140418   19.995356      18.65117       1.3441852     -1.8913998      18032.936    
    365000   1.0371627      0.0023323615  -0.0016967991   20.178011      18.637824      1.5401867     -1.8638814      18292.652    
    366000   0.92744347     0.0023323615   0.0053628223   20.068351      18.691097      1.3772536     -1.7798351      18125.506    
    367000   0.94304164     0.0023323615   0.0037846157   20.178703      18.778286      1.4004168     -1.7771497      18192.749    
    368000   0.98751588     0.0023323615  -0.0037102594   20.073161      18.6067        1.4664611     -1.960819       18109.217    
    369000   1.0287958      0.0023323615  -0.001840269    20.100361      18.5726        1.5277618     -2.0063284      18018.661    
    370000   0.79256234     0.0023323615  -0.0023486434   19.571273      18.394318      1.1769551     -2.0638591      17879.739    
    371000   0.9888556      0.0023323615   0.0019194728   19.792798      18.324347      1.4684506     -2.1488631      18019.39     
    372000   0.95997384     0.0023323615  -0.0037629212   19.809762      18.384201      1.4255612     -2.1478941      18129.617    
    373000   1.0429048      0.0023323615  -0.00011855194  20.005205      18.456491      1.5487136     -2.0095534      17932.566    
    374000   0.83878872     0.0023323615  -9.5483804e-05  19.689029      18.443428      1.2456012     -2.0868516      18052.404    
    375000   0.94640645     0.0023323615   0.00031197094  20.289283      18.883869      1.4054136     -1.6438791      18042.226    
    376000   1.005707       0.0023323615   0.0014842838   19.697356      18.203881      1.493475      -2.1672969      18179.787    
    377000   0.77828748     0.0023323615   0.0032334956   19.666285      18.510528      1.1557569     -1.8927233      17943.64     
    378000   1.0788734      0.0023323615  -0.00044540492  20.407541      18.805414      1.602127      -1.7950314      17872.008    
    379000   1.1532849      0.0023323615  -0.0042272675   20.488489      18.775861      1.712628      -1.8375524      17893.031    
    380000   0.96979097     0.0023323615  -0.0017487321   19.843967      18.403827      1.4401396     -1.9725656      17731.803    
    381000   0.93578261     0.0023323615   0.0049577234   19.9512        18.561563      1.3896372     -1.9402783      17728.626    
    382000   0.9872325      0.0023323615   0.0022023169   19.842528      18.376487      1.4660403     -2.0374439      17979.579    
    383000   1.0513517      0.0023323615   0.00034498741  19.932562      18.371305      1.5612573     -2.1214409      17944.866    
    384000   0.9751146      0.0023323615  -0.0013189332   19.765131      18.317086      1.4480452     -2.161259       17972.677    
    385000   0.92197662     0.0023323615   0.0017962983   19.831871      18.462736      1.3691353     -1.9683723      18033.034    
    386000   1.2500375      0.0023323615   0.0001964253   20.575482      18.719177      1.8563057     -1.8528715      17952.906    
    387000   0.96944724     0.0023323615  -0.0018284383   19.873018      18.433389      1.4396292     -2.1406949      18037.081    
    388000   0.80913099     0.0023323615  -0.001707395    19.987149      18.78559       1.2015595     -1.7764985      18004.997    
    389000   0.89611453     0.0023323615  -0.00036539061  19.738083      18.407353      1.3307301     -2.1185276      18030.988    
    390000   1.0814917      0.0023323615   0.0040333748   19.960923      18.354907      1.6060152     -2.1346817      18081.818    
    391000   1.0113468      0.0023323615  -0.00089183897  19.955496      18.453646      1.50185       -2.0028099      18114.282    
    392000   0.99729141     0.0023323615  -0.00014359535  19.770484      18.289506      1.4809777     -2.232207       18062.672    
    393000   1.023701       0.0023323615   0.0045547134   19.966798      18.446602      1.520196      -2.0682599      18091.299    
    394000   1.0088669      0.0023323615  -0.0012116978   20.25309       18.754923      1.4981673     -1.8580604      18102.34     
    395000   0.96736241     0.0023323615   0.00098529697  19.592347      18.155814      1.4365332     -2.2353561      18192.458    
    396000   0.95838709     0.0023323615  -0.00040761614  19.999824      18.576619      1.4232048     -2.0138426      18121.721    
    397000   1.0526426      0.0023323615  -0.002683389    20.195383      18.632208      1.5631742     -1.9380577      18269.114    
    398000   1.0040569      0.0023323615  -0.00094696377  20.154141      18.663116      1.4910245     -1.8726429      18284.392    
    399000   0.93023269     0.0023323615   0.0044273204   19.880156      18.498761      1.3813955     -1.9852204      18312.409    
    400000   0.9221229      0.0023323615  -9.5823291e-05  20.030529      18.661176      1.3693525     -1.8712659      18149.311    
    401000   1.1299669      0.0023323615  -0.00069680608  20.31385       18.635849      1.6780009     -1.9414157      18184.119    
    402000   0.98713949     0.0023323615   0.002747711    20.092665      18.626763      1.4659021     -1.8792155      18133.013    
    403000   0.91906737     0.0023323615  -0.0018178071   20.268699      18.903884      1.364815      -1.7599598      18215.905    
    404000   1.0410923      0.0023323615   0.0027564163   20.102294      18.556272      1.5460221     -1.9573283      18154.55     
    405000   0.86893611     0.0023323615  -0.0026433784   19.923268      18.632898      1.2903701     -1.895508       18325.337    
    406000   1.1128848      0.0023323615   0.0010736106   20.180006      18.527372      1.6526339     -2.0910707      18349.735    
    407000   0.92280133     0.0023323615   0.00010308278  19.805648      18.435288      1.37036       -2.0139586      18193.025    
    408000   1.0367685      0.0023323615   0.0023817153   19.972186      18.432585      1.5396013     -1.9350436      18311.338    
    409000   1.156375       0.0023323615  -0.00091827523  20.274174      18.556957      1.7172168     -1.8502404      18247.335    
    410000   0.84573113     0.0023323615  -0.0012837014   19.742878      18.486968      1.2559107     -2.0184627      18322.202    
[...]
    861000   1.0077837      0.0023323615   0.0012932704   20.261975      18.765416      1.4965588     -1.8341091      17989.09     
    862000   1.0555222      0.0023323615   0.0012071295   20.065505      18.498055      1.5674504     -2.128392       18067.926    
    863000   1.1194918      0.0023323615  -0.00012371268  20.043112      18.380666      1.6624453     -2.1252819      18058.322    
    864000   0.86357313     0.0023323615   0.00095151844  19.708227      18.42582       1.2824061     -2.0624848      18211.428    
    865000   0.99429014     0.0023323615  -0.0015512894   20.026829      18.550308      1.4765209     -1.906546       18080.386    
    866000   0.97138173     0.0023323615   0.0030664364   19.832292      18.38979       1.4425019     -2.0534402      17963.077    
    867000   1.0724644      0.0023323615   0.0045330353   20.238086      18.645476      1.5926096     -1.9563913      18044.983    
    868000   0.9702538      0.0023323615   0.0010448038   20.01317       18.572343      1.4408269     -1.928055       18022.803    
    869000   0.93536277     0.0023323615   0.00074643264  20.079529      18.690516      1.3890137     -1.9316814      17974.583    
    870000   1.0412601      0.0023323615  -0.0019727201   20.027875      18.481603      1.5462712     -1.9593235      18090.342    
    871000   0.91131375     0.0023323615  -0.00063501801  19.766681      18.41338       1.3533009     -2.0213393      18223.441    
    872000   1.0465083      0.0023323615   0.0016207453   20.106445      18.55238       1.5540649     -1.9437057      18134.891    
    873000   1.0424095      0.0023323615  -0.00027423856  20.082151      18.534172      1.5479781     -1.9612553      18185.921    
    874000   0.86603941     0.0023323615   0.0011423949   19.691059      18.404991      1.2860685     -2.1311225      18135.069    
    875000   1.1045072      0.0023323615  -0.00077205498  20.092549      18.452356      1.6401931     -2.0617311      18214.811    
    876000   0.95988919     0.0023323615  -0.00010913781  20.321862      18.896427      1.4254354     -1.7185386      18200.94     
    877000   1.1662205      0.0023323615   0.00092896974  20.194814      18.462977      1.7318375     -1.8918415      18254.443    
    878000   0.88822029     0.0023323615  -0.00096276694  19.328349      18.009342      1.3190071     -2.3548902      18122.557    
    879000   1.0197023      0.0023323615  -0.0011900167   20.435642      18.921384      1.5142579     -1.6278548      17936.514    
    880000   0.97854758     0.0023323615   0.004709269    20.150682      18.697539      1.4531432     -1.913826       18129.459    
    881000   1.0198606      0.0023323615   0.00016167582  20.161832      18.647339      1.514493      -1.8584552      18279.834    
    882000   0.89409705     0.0023323615   0.0015862733   19.791885      18.464151      1.3277341     -1.8932253      18204.977    
    883000   1.0070881      0.0023323615   0.0012489629   19.776285      18.280759      1.4955258     -2.119557       17975.58     
    884000   0.98797021     0.0023323615  -0.0032974038   20.187357      18.720221      1.4671358     -1.8239312      18148.057    
    885000   1.0193895      0.0023323615  -0.0020669358   20.026545      18.512752      1.5137934     -2.1195072      18151.411    
    886000   1.015931       0.0023323615  -0.00027271342  20.069379      18.560721      1.5086575     -1.9425773      18120.714    
    887000   1.1060651      0.0023323615   0.0056228782   20.111165      18.468658      1.6425067     -2.0750413      18128.281    
    888000   0.82729336     0.0023323615  -0.00037824304  19.645566      18.417035      1.2285306     -2.086219       18199.062    
    889000   0.99773733     0.0023323615   0.0024897394   20.050498      18.568859      1.4816399     -1.9978679      18131.468    
    890000   1.099807       0.0023323615   0.0063470456   20.106185      18.472972      1.6332135     -2.0581486      18136.947    
    891000   0.93545244     0.0023323615  -0.0021156102   19.81226       18.423113      1.3891469     -1.9893011      18184.347    
    892000   0.93999454     0.0023323615  -0.00065249315  20.062569      18.666677      1.3958919     -1.9707037      18136.895    
    893000   1.0671022      0.0023323615  -0.0013853588   20.286742      18.702095      1.5846468     -1.8293468      18310.048    
    894000   0.97639323     0.0023323615  -0.0013404676   19.951485      18.501541      1.449944      -2.2056858      18087.745    
    895000   0.99053743     0.0023323615   0.0022135478   19.959855      18.488907      1.4709481     -2.0102519      17872.657    
    896000   0.99623428     0.0023323615   0.003263251    19.958791      18.479383      1.4794079     -2.1057422      18093.45     
    897000   0.97991703     0.0023323615   0.002556592    20.061511      18.606334      1.4551768     -1.9642698      18099.989    
    898000   1.0136878      0.0023323615  -0.0034872345   20.190094      18.684767      1.5053264     -1.8956973      18111.764    
    899000   0.94197974     0.0023323615  -0.0020043115   19.689287      18.290447      1.3988399     -2.2549393      17960.455    
    900000   0.91082496     0.0023323615  -0.00061211311  19.568496      18.215921      1.3525751     -2.2250638      18104.445    
    901000   1.0919744      0.0023323615  -0.00025186976  20.171032      18.54945       1.6215819     -1.8939461      18116.794    
    902000   0.94815353     0.0023323615  -0.00044277052  19.956793      18.548785      1.408008      -1.9609802      18014.329    
    903000   0.95684438     0.0023323615  -0.0023881464   20.136656      18.715742      1.4209139     -1.8025622      18051.095    
    904000   0.97472762     0.0023323615   0.0027684478   19.867613      18.420143      1.4474705     -2.0200872      18350.284    
    905000   1.0400772      0.0023323615  -0.00071063388  19.993774      18.449259      1.5445147     -1.9764788      18227.93     
    906000   1.0300891      0.0023323615   0.0013790046   20.155278      18.625596      1.5296823     -1.8895796      18167.031    
    907000   0.83721703     0.0023323615   0.0010001204   20.135871      18.892604      1.2432673     -1.6044479      18196.922    
    908000   0.92281965     0.0023323615  -0.0004055409   20.061932      18.691544      1.3703872     -1.7860072      18053.563    
    909000   0.8993565      0.0023323615  -0.00012685968  19.729384      18.393839      1.3355444     -2.0648144      18224.978    
    910000   0.96264562     0.0023323615  -0.0019208353   20.178923      18.749395      1.4295287     -1.890775       18061.956    
    911000   0.9066711      0.0023323615  -0.0046681134   19.658709      18.312302      1.3464066     -2.1061657      18028.207    
    912000   1.0979758      0.0023323615  -0.00028740898  19.890932      18.260437      1.630494      -2.0963108      18089.404    
    913000   0.99905291     0.0023323615   0.00071147202  20.000767      18.517174      1.4835936     -2.0281223      18084.435    
    914000   1.0650024      0.0023323615   0.0029460465   19.977658      18.396129      1.5815285     -2.1202643      17933.697    
    915000   0.94830396     0.0023323615  -0.00072448729  20.024055      18.615824      1.4082314     -1.8752486      18007.534    
    916000   0.96191863     0.0023323615   0.0013432495   19.825453      18.397004      1.4284492     -2.0265568      18043.912    
    917000   0.80338834     0.0023323615  -0.0016368684   19.773481      18.580449      1.1930317     -1.8869632      18092.847    
    918000   0.92113564     0.0023323615  -0.00017628105  19.941462      18.573575      1.3678864     -1.8859542      18149.846    
    919000   1.1199188      0.0023323615  -0.0027773997   20.117167      18.454088      1.6630795     -1.9484353      18193.002    
    920000   1.0523289      0.0023323615   0.0029235808   20.279015      18.716307      1.5627084     -1.7487179      18159.27     
    921000   0.92345147     0.0023323615  -0.00082887187  20.08756       18.716235      1.3713254     -1.8650046      18164.498    
    922000   1.029707       0.0023323615   0.0022482981   20.099528      18.570413      1.5291149     -2.01011        18104.74     
    923000   1.034244       0.0023323615  -0.0019645298   19.849503      18.313651      1.5358524     -2.1091205      17990.721    
    924000   1.0763945      0.0023323615   0.00087446635  20.048261      18.449815      1.5984459     -1.964721       17931.899    
    925000   1.1431949      0.0023323615   0.0010865447   20.379653      18.682009      1.6976444     -1.8300871      18080.969    
    926000   0.8626673      0.0023323615   0.0010222272   19.747615      18.466554      1.2810609     -1.9180066      18083.259    
    927000   1.0438835      0.0023323615  -0.0023603809   20.35218       18.802013      1.5501671     -1.7274338      18259.897    
    928000   1.0428238      0.0023323615  -0.0003498922   20.194967      18.646374      1.5485933     -1.9579476      18034.572    
    929000   0.9963789      0.0023323615  -0.0010566675   20.023636      18.544014      1.4796227     -1.9098331      18336.833    
    930000   0.99007896     0.0023323615  -0.0017239851   19.989276      18.519009      1.4702672     -1.9232315      18171.959    
    931000   1.0668123      0.0023323615   0.0021360413   20.144392      18.560176      1.5842163     -1.9094938      18163.09     
    932000   1.0096727      0.0023323615  -0.0031690787   20.192048      18.692684      1.499364      -1.8582341      18154.679    
    933000   1.1058744      0.0023323615   0.0015586086   20.099877      18.457654      1.6422234     -2.0337134      18150.242    
    934000   0.98573498     0.0023323615   5.3190523e-05  20.211186      18.74737       1.4638164     -1.8228304      18107.732    
    935000   1.0074362      0.0023323615   0.0015317695   20.176956      18.680914      1.4960427     -1.9494477      18054.955    
    936000   0.96258943     0.0023323615   0.0014516247   19.972246      18.542801      1.4294453     -2.0617556      18073.272    
    937000   0.90500401     0.0023323615   0.0024395391   19.821152      18.477221      1.343931      -2.1251024      18098.378    
    938000   1.0413148      0.0023323615   0.0011214802   19.988156      18.441804      1.5463525     -2.0782402      18089.961    
    939000   1.0590466      0.0023323615  -0.0018043645   19.995872      18.423188      1.5726842     -2.094703       18129.677    
    940000   1.0061756      0.0023323615  -0.00089672105  20.019189      18.525018      1.4941708     -2.0114018      18172.882    
    941000   1.1044855      0.0023323615  -0.0027348685   20.253052      18.612891      1.6401609     -1.8958158      18171.532    
    942000   0.89977869     0.0023323615  -0.00072160397  19.748875      18.412704      1.3361713     -1.9878295      18203.476    
    943000   1.0606974      0.0023323615   0.0022709668   20.300262      18.725126      1.5751356     -1.8729761      18187.933    
    944000   1.0726916      0.0023323615  -0.0028664202   20.194464      18.601517      1.592947      -1.8762249      18209.202    
    945000   1.0315415      0.0023323615  -0.0010659713   19.992466      18.460627      1.5318391     -1.9804479      18197.702    
    946000   0.97497535     0.0023323615   0.00050583017  19.799952      18.352114      1.4478384     -2.1643813      18067.439    
    947000   1.0100786      0.0023323615   0.0027900102   19.895938      18.395971      1.4999667     -2.0486177      18149.156    
    948000   1.038294       0.0023323615   0.00061645222  20.270044      18.728178      1.5418666     -1.7953034      18172.372    
    949000   1.0147394      0.0023323615   0.0050922965   20.062994      18.556106      1.506888      -2.0705205      18139.36     
    950000   0.99685479     0.0023323615   0.0012352039   20.309601      18.829272      1.4803294     -1.7948391      18040.87     
    951000   0.9323869      0.0023323615  -0.0012195967   19.861514      18.47692       1.3845945     -2.0615941      17957.356    
    952000   1.132938       0.0023323615   0.00040192593  20.428875      18.746462      1.6824129     -1.8284317      17857.303    
    953000   0.95250307     0.0023323615   0.0010351167   19.771909      18.357442      1.4144671     -2.1014675      18027.614    
    954000   0.94009908     0.0023323615   0.0026734667   19.875296      18.479249      1.3960471     -2.0559074      17859.974    
    955000   1.0496169      0.0023323615   0.0022206099   19.894653      18.335972      1.5586811     -2.257581       17935.924    
    956000   1.0591294      0.0023323615   0.00038980677  19.96153       18.388723      1.5728071     -2.1344691      17932.005    
    957000   1.1004387      0.0023323615  -0.00057850659  20.299721      18.665569      1.6341514     -1.9359677      18067.504    
    958000   1.1015571      0.0023323615  -0.0018590705   20.190659      18.554847      1.6358123     -1.9021004      17897.767    
    959000   0.93150816     0.0023323615   0.00086839882  19.946261      18.562971      1.3832896     -1.8208439      17930.404    
    960000   0.97044971     0.0023323615   0.002051082    19.919276      18.478158      1.4411178     -1.9785805      18023.786    
    961000   1.1772892      0.0023323615  -0.0017469337   20.426397      18.678123      1.7482745     -1.8960451      17941.637    
    962000   1.0736414      0.0023323615   0.0016604342   20.242742      18.648385      1.5943574     -1.8666845      17925.735    
    963000   1.0217395      0.0023323615  -0.0010992519   20.144155      18.626872      1.5172832     -1.9738441      17883.737    
    964000   0.82634179     0.0023323615  -0.0036136012   19.690543      18.463426      1.2271176     -2.1346287      18044.323    
    965000   0.8877304      0.0023323615   0.0016186924   19.904294      18.586014      1.3182796     -1.9381217      17995.69     
    966000   1.0404485      0.0023323615  -0.0047218273   20.024338      18.479272      1.545066      -2.0274798      17993.601    
    967000   0.99655871     0.0023323615   0.0037035626   20.039304      18.559415      1.4798897     -1.8751481      18076.876    
    968000   1.0084595      0.0023323615  -0.0015472069   20.102812      18.60525       1.4975623     -1.9160541      17960.598    
    969000   1.022604       0.0023323615   1.1511241e-05  19.694404      18.175837      1.518567      -2.2151038      18017.806    
    970000   1.1543864      0.0023323615   0.0049755755   20.265297      18.551033      1.7142638     -1.9625082      17928.829    
    971000   0.963424       0.0023323615  -0.0016225278   19.805288      18.374604      1.4306846     -2.1052378      17954.181    
    972000   1.0070739      0.0023323615   0.00078402107  19.968966      18.473462      1.4955047     -1.9417375      18344.898    
    973000   0.87010461     0.0023323615  -0.0010833292   19.886524      18.594419      1.2921054     -1.8860903      19513.121    
    974000   0.93745816     0.0023323615   0.0053502825   19.942652      18.550527      1.3921254     -1.9528916      19145.736    
    975000   1.0716258      0.0023323615   0.004411801    20.246124      18.65476       1.5913644     -1.8324869      19307.953    
    976000   1.0228206      0.0023323615   0.0064643003   20.207789      18.6889        1.5188886     -1.7408337      19833.681    
    977000   1.028053       0.0023323615  -0.0018363823   20.443929      18.91727       1.5266588     -1.7103166      18895.376    
    978000   1.041375       0.0023323615  -0.007050068    20.264241      18.717799      1.5464419     -1.8636493      18399.1      
    979000   1.0565623      0.0023323615  -0.0017486555   20.264595      18.6956        1.568995      -1.8612922      18145.969    
    980000   0.93849766     0.0023323615  -0.0005783943   19.655181      18.261512      1.393669      -2.2385236      18218.272    
    981000   0.99811366     0.0023323615  -0.00010939428  20.041736      18.559537      1.4821988     -1.8884756      18705.831    
    982000   1.0130847      0.0023323615   0.0023044863   20.021434      18.517003      1.5044309     -1.8921558      18115.495    
    983000   0.93587324     0.0023323615   0.0028787397   19.667292      18.27752       1.3897718     -2.1548763      18105.187    
    984000   1.0418884      0.0023323615  -0.0038843995   20.094677      18.547472      1.5472042     -1.9018872      18595.525    
    985000   0.95967524     0.0023323615  -0.0010960919   19.755587      18.330469      1.4251177     -2.2864279      18702.81     
    986000   1.029373       0.0023323615   0.0037042648   20.146974      18.618355      1.5286189     -1.9800072      18135.979    
    987000   0.95594096     0.0023323615  -0.0040078214   19.89694       18.477368      1.4195723     -1.9788761      18228.443    
    988000   0.98258195     0.0023323615   0.00068247348  19.835163      18.376029      1.4591342     -2.0265506      18625.857    
    989000   0.83856008     0.0023323615  -0.0041583578   19.934606      18.689345      1.2452617     -1.8268482      18014.759    
    990000   0.9132331      0.0023323615   0.00048846305  20.034952      18.678801      1.3561512     -1.8675695      18315.215    
    991000   1.1114523      0.0023323615   0.0010163601   20.095511      18.445005      1.6505067     -2.0357707      19288.007    
    992000   1.1036217      0.0023323615   0.00088654304  20.149523      18.510644      1.6388783     -1.8918111      19567.055    
    993000   1.0307175      0.0023323615  -0.0005577776   20.320253      18.789637      1.5306154     -1.815089       19319.961    
    994000   1.0287631      0.0023323615  -0.0014292107   20.1885        18.660787      1.5277132     -1.8845725      19439.19     
    995000   0.88045445     0.0023323615   0.0024803655   19.983144      18.675669      1.3074749     -1.9325914      19485.648    
    996000   0.95743986     0.0023323615   0.0053460807   20.309325      18.887527      1.4217982     -1.7833016      19752.152    
    997000   1.066517       0.0023323615   0.00020443261  20.097893      18.514115      1.5837778     -2.0656812      19459.712    
    998000   0.89409059     0.0023323615   0.00076326276  19.838112      18.510387      1.3277245     -2.0342695      19207.566    
    999000   1.1785675      0.0023323615  -0.00098300602  20.170617      18.420444      1.7501727     -2.2075205      18660.048    
   1000000   0.94807142     0.0023323615  -0.0022212591   19.78666       18.378774      1.4078861     -2.158365       18961.886    
Loop time of 55.1815 on 1 procs for 1000000 steps with 100 atoms

Performance: 7828708.089 tau/day, 18122.009 timesteps/s
99.5% CPU use with 1 MPI tasks x 1 OpenMP threads

MPI task timing breakdown:
Section |  min time  |  avg time  |  max time  |%varavg| %total
---------------------------------------------------------------
Pair    | 46.228     | 46.228     | 46.228     |   0.0 | 83.78
Bond    | 1.2592     | 1.2592     | 1.2592     |   0.0 |  2.28
Neigh   | 3.7789     | 3.7789     | 3.7789     |   0.0 |  6.85
Comm    | 1.4066     | 1.4066     | 1.4066     |   0.0 |  2.55
Output  | 0.21254    | 0.21254    | 0.21254    |   0.0 |  0.39
Modify  | 1.9418     | 1.9418     | 1.9418     |   0.0 |  3.52
Other   |            | 0.3541     |            |       |  0.64

Nlocal:            100 ave         100 max         100 min
Histogram: 1 0 0 0 0 0 0 0 0 0
Nghost:            342 ave         342 max         342 min
Histogram: 1 0 0 0 0 0 0 0 0 0
Neighs:           4851 ave        4851 max        4851 min
Histogram: 1 0 0 0 0 0 0 0 0 0

Total # of neighbors = 4851
Ave neighs/atom = 48.51
Ave special neighs/atom = 1.98
Neighbor list builds = 97711
Dangerous builds = 78517

write_data      ${outputfile_assembled} nofix nocoeff
write_data      7_assembled.data nofix nocoeff
System init for write_data ...
Generated 0 of 6 mixed pair_coeff terms from geometric mixing rule

Total wall time: 0:00:56
