LAMMPS (23 Jun 2022 - Update 1)
OMP_NUM_THREADS environment is not set. Defaulting to 1 thread. (src/comm.cpp:98)
  using 1 OpenMP thread(s) per MPI task


variable        runtime equal 1000000
variable		subsample_rate equal 1000

variable		outputfile_created string '3_created.data'
variable		outputfile_relaxed string '5_relaxed.data'
variable		outputfile_selfasb string '6_a_self_assemble.lammpstrj'
variable		outputfile_trajlin string '6_b_trajlin.data'
variable		outputfile_assembled string '7_assembled.data'

units           lj
atom_style      full
dimension       3
boundary        p p p
timestep        0.005

read_data       ${outputfile_created}
read_data       3_created.data
Reading data file ...
  orthogonal box = (0 0 0) to (35 35 35)
  1 by 1 by 1 MPI processor grid
  reading atoms ...
  100 atoms
  reading velocities ...
  100 velocities
  scanning bonds ...
  1 = max bonds/atom
  reading bonds ...
  99 bonds
Finding 1-2 1-3 1-4 neighbors ...
  special bond factors lj:    0        0        0       
  special bond factors coul:  0        0        0       
     2 = max # of 1-2 neighbors
     2 = max # of 1-3 neighbors
     4 = max # of 1-4 neighbors
     6 = max # of special neighbors
  special bonds CPU = 0.001 seconds
  read_data CPU = 0.009 seconds

bond_style      fene
bond_coeff      * 30.0 1.5 1.0 1.0
special_bonds   fene
Finding 1-2 1-3 1-4 neighbors ...
  special bond factors lj:    0        1        1       
  special bond factors coul:  0        1        1       
     2 = max # of 1-2 neighbors
     6 = max # of special neighbors
  special bonds CPU = 0.000 seconds

variable        Temp equal 1.0
variable        velSeed equal 926458

velocity        all create ${Temp} ${velSeed}
velocity        all create 1 ${velSeed}
velocity        all create 1 926458

### Output
thermo_style    custom step temp density press etotal pe ke epair spcpu
thermo          1000

###########################################################################
# Soft relaxation (to remove overlaps of particles)
######################################################################

pair_style      soft 1.0
pair_coeff      * * 0.0
variable        prefactor equal ramp(0,300)
fix             rampSoft all adapt 1 pair soft a * * v_prefactor

minimize        0.0 1.0e-8 1000 100000
WARNING: Using 'neigh_modify every 1 delay 0 check yes' setting during minimization (src/min.cpp:187)
Generated 0 of 6 mixed pair_coeff terms from geometric mixing rule
Neighbor list info ...
  update every 1 steps, delay 0 steps, check yes
  max neighbors/atom: 2000, page size: 100000
  master list distance cutoff = 1.3
  ghost atom cutoff = 1.3
  binsize = 0.65, bins = 54 54 54
  1 neighbor lists, perpetual/occasional/extra = 1 0 0
  (1) pair soft, perpetual
      attributes: half, newton on
      pair build: half/bin/newton
      stencil: half/bin/3d
      bin: standard
WARNING: Communication cutoff 1.3 is shorter than a bond length based estimate of 1.7550000000000001. This may lead to errors. (src/comm.cpp:727)
Per MPI rank memory allocation (min/avg/max) = 8.346 | 8.346 | 8.346 Mbytes
   Step          Temp         Density         Press          TotEng         PotEng         KinEng         E_pair         S/CPU     
         0   1              0.0023323615  -0.0039617958   21.524174      20.039174      1.485          0              0            
       362   1              0.0023323615   0.0023090379   21.485548      20.000548      1.485          0              61159.786    
Loop time of 0.005933 on 1 procs for 362 steps with 100 atoms

100.0% CPU use with 1 MPI tasks x 1 OpenMP threads

Minimization stats:
  Stopping criterion = force tolerance
  Energy initial, next-to-last, final = 
      20.0391741078675   20.0005480767337   20.0005480767337
  Force two-norm initial, final = 11.878422 7.9509778e-09
  Force max component initial, final = 6.6117807 1.3572772e-09
  Final line search alpha, max atom move = 1 1.3572772e-09
  Iterations, force evaluations = 362 738

MPI task timing breakdown:
Section |  min time  |  avg time  |  max time  |%varavg| %total
---------------------------------------------------------------
Pair    | 0.00027463 | 0.00027463 | 0.00027463 |   0.0 |  4.63
Bond    | 0.0028563  | 0.0028563  | 0.0028563  |   0.0 | 48.14
Neigh   | 0.0014906  | 0.0014906  | 0.0014906  |   0.0 | 25.12
Comm    | 0.00027891 | 0.00027891 | 0.00027891 |   0.0 |  4.70
Output  | 0          | 0          | 0          |   0.0 |  0.00
Modify  | 0          | 0          | 0          |   0.0 |  0.00
Other   |            | 0.001033   |            |       | 17.40

Nlocal:            100 ave         100 max         100 min
Histogram: 1 0 0 0 0 0 0 0 0 0
Nghost:             20 ave          20 max          20 min
Histogram: 1 0 0 0 0 0 0 0 0 0
Neighs:              0 ave           0 max           0 min
Histogram: 1 0 0 0 0 0 0 0 0 0

Total # of neighbors = 0
Ave neighs/atom = 0
Ave special neighs/atom = 1.98
Neighbor list builds = 17
Dangerous builds = 0

fix             nvtSoft all nvt temp ${Temp} ${Temp} 0.5
fix             nvtSoft all nvt temp 1 ${Temp} 0.5
fix             nvtSoft all nvt temp 1 1 0.5
run             100000
Generated 0 of 6 mixed pair_coeff terms from geometric mixing rule
WARNING: Communication cutoff 1.3 is shorter than a bond length based estimate of 1.7550000000000001. This may lead to errors. (src/comm.cpp:727)
Per MPI rank memory allocation (min/avg/max) = 7.221 | 7.221 | 7.221 Mbytes
   Step          Temp         Density         Press          TotEng         PotEng         KinEng         E_pair         S/CPU     
       362   1              0.0023323615   0.0023090379   21.485548      20.000548      1.485          0              0            
      1000   0.90989032     0.0023323615  -0.0021940042   21.776974      20.425787      1.3511871      0.00036425437  66127.962    
      2000   0.86546688     0.0023323615   0.0034714157   21.677128      20.39191       1.2852183      0.0025814786   67453.958    
      3000   0.98199538     0.0023323615   0.0028144228   21.866132      20.407869      1.4582631      0.0011756043   67831.878    
      4000   1.004495       0.0023323615  -0.0014058211   21.945624      20.453949      1.4916751      0.011986179    68103.273    
      5000   1.1222705      0.0023323615   0.0044495116   21.986385      20.319813      1.6665718      0.0050317639   67448.903    
      6000   1.0538243      0.0023323615   0.0023957538   21.985713      20.420784      1.564929       0.012100514    66624.36     
      7000   1.0210598      0.0023323615  -0.00038820026  21.904665      20.388391      1.5162738      0              67834.874    
      8000   0.94819751     0.0023323615   0.0024943091   21.747889      20.339816      1.4080733      0              68228.55     
      9000   0.92364502     0.0023323615   0.0020053029   21.724166      20.352554      1.3716129      1.7780894e-05  66917.066    
     10000   0.86685188     0.0023323615   0.00078277366  21.644879      20.357604      1.287275       0.0098636418   65899.756    
     11000   1.0057103      0.0023323615   0.00010113276  21.8558        20.362321      1.4934798      0.020705341    65380.933    
     12000   0.97901664     0.0023323615  -0.0026996968   21.871206      20.417366      1.4538397      0.0052928539   63966.128    
     13000   0.97718436     0.0023323615  -6.1641422e-06  21.963706      20.512587      1.4511188      0.025022446    63469.275    
     14000   1.0530014      0.0023323615  -0.0009993112   21.947994      20.384287      1.5637071      0.0020860456   63140.134    
     15000   0.99094527     0.0023323615   0.0011068478   21.895146      20.423592      1.4715537      0.0015091113   63915.619    
     16000   0.91285091     0.0023323615  -0.00025424173  21.87524       20.519657      1.3555836      0.0047853639   63838.893    
     17000   0.82806978     0.0023323615  -0.00054698156  21.701984      20.472301      1.2296836      0              63217.027    
     18000   1.043278       0.0023323615  -6.6143919e-05  22.003299      20.454031      1.5492679      0.0034319132   64428.784    
     19000   1.0879249      0.0023323615  -0.0017804642   21.998985      20.383416      1.6155685      0.015376175    66629.838    
     20000   1.1144506      0.0023323615   0.0025198298   22.190904      20.535944      1.6549592      0              65780.667    
     21000   1.0427751      0.0023323615   0.0011345349   22.099492      20.550971      1.548521       0.00040047813  65933.708    
     22000   1.0586695      0.0023323615   0.0017882747   22.05673       20.484606      1.5721242      0              64711.156    
     23000   1.0058426      0.0023323615  -0.0055245362   21.954628      20.460951      1.4936763      0.0027619031   63262.347    
     24000   0.98273442     0.0023323615   0.0015147357   21.862067      20.402707      1.4593606      0              63213.311    
     25000   0.95835343     0.0023323615   0.0017808774   21.937761      20.514606      1.4231548      0.00020839942  64901.641    
     26000   0.93993778     0.0023323615  -0.0021777292   21.884849      20.489042      1.3958076      0.0088889834   64838.06     
     27000   0.9308188      0.0023323615  -0.00011239942  21.842252      20.459986      1.3822659      0.021612409    62684.115    
     28000   1.0149581      0.0023323615   0.0041996387   21.906846      20.399633      1.5072129      0.0064059022   63752.286    
     29000   0.92841138     0.0023323615  -2.5398808e-05  21.987185      20.608494      1.3786909      0.0046112484   63886.901    
     30000   1.021043       0.0023323615   0.001589158    22.097958      20.581709      1.5162489      0.016799508    64451.083    
     31000   1.0465985      0.0023323615  -0.0021744286   22.037917      20.483718      1.5541987      0.0057879149   66512.265    
     32000   0.98907108     0.0023323615  -0.0015558606   22.044089      20.575318      1.4687705      0.009448173    67962.859    
     33000   1.0918536      0.0023323615  -0.0025643847   22.039275      20.417873      1.6214025      0              62883.792    
     34000   0.99801543     0.0023323615   0.0016279766   21.932339      20.450286      1.4820529      0.017384617    55264.694    
     35000   1.0352271      0.0023323615  -0.0052971711   22.076004      20.538692      1.5373122      0.00010473809  63777.214    
     36000   1.1141579      0.0023323615  -0.00093279925  22.222491      20.567966      1.6545245      0.00033678641  64650.209    
     37000   1.0369415      0.0023323615   0.00013065175  22.217841      20.677983      1.5398581      0.013788831    63978.757    
     38000   1.0515596      0.0023323615   0.0021717558   22.070766      20.5092        1.561566       0.0067894678   64258.3      
     39000   1.0238495      0.0023323615   0.00026414509  22.040141      20.519725      1.5204165      0.00044464649  63259.465    
     40000   1.0749111      0.0023323615  -0.0026849368   22.039327      20.443084      1.596243       0.012651334    61817.901    
     41000   0.99070886     0.0023323615  -0.0030385564   22.03241       20.561207      1.4712027      0.00092855646  64720.382    
     42000   0.95315224     0.0023323615   0.0019788197   21.965263      20.549832      1.4154311      0.020233689    63866.589    
     43000   1.0644183      0.0023323615  -0.0011168725   22.287172      20.706511      1.5806611      0.039694129    64625.513    
     44000   1.0253747      0.0023323615  -0.006676522    22.066233      20.543552      1.5226814      0              63841.465    
     45000   0.94179556     0.0023323615  -0.0047206018   21.970644      20.572077      1.3985664      0.019869988    63776.682    
     46000   1.0083495      0.0023323615  -0.0017646918   21.972114      20.474715      1.497399       0.00026040605  63912.429    
     47000   0.98767959     0.0023323615  -0.00080218158  22.091674      20.62497       1.4667042      0.024266258    62911.061    
     48000   1.1473449      0.0023323615  -0.0025885687   22.080512      20.376705      1.7038072      0.00065962995  63264.032    
     49000   1.0679312      0.0023323615   0.0017688272   21.970482      20.384604      1.5858779      0.014142422    64602.88     
     50000   0.9581935      0.0023323615   0.0014398836   21.955202      20.532284      1.4229173      0.0055011948   64129.906    
     51000   1.0215759      0.0023323615  -0.00093292688  21.934681      20.41764       1.5170402      0              63868.551    
     52000   0.98079591     0.0023323615   0.0040701936   21.977374      20.520892      1.4564819      0.0020862422   66489.397    
     53000   1.0090927      0.0023323615   0.0013324753   22.095438      20.596935      1.4985027      0              65035.274    
     54000   0.97519627     0.0023323615   0.0013260734   22.070151      20.621984      1.4481665      0.026885444    66639.487    
     55000   1.1805087      0.0023323615  -0.001586238    22.424088      20.671033      1.7530554      0.024690954    63802.044    
     56000   0.98387121     0.0023323615   0.0037155145   22.104425      20.643376      1.4610487      0.01435493     64003.494    
     57000   1.0723812      0.0023323615  -0.0037916262   22.122726      20.53024       1.592486       0.013635549    64280.985    
     58000   1.0152349      0.0023323615   0.00021908047  22.082827      20.575203      1.5076238      0.00077375639  63665.176    
     59000   1.1424502      0.0023323615  -0.0052108657   22.30072       20.604182      1.6965385      0.013308184    64992.541    
     60000   1.0359703      0.0023323615  -0.00097887545  22.188218      20.649802      1.538416       0.00011346294  62635.892    
     61000   1.1646839      0.0023323615  -0.002085017    22.239945      20.51039       1.7295556      0.012918477    65112.145    
     62000   1.101836       0.0023323615   0.0010338878   22.171386      20.53516       1.6362265      0.001396566    64366.665    
     63000   0.96616435     0.0023323615   0.00097550571  21.903821      20.469067      1.4347541      0.013027663    65400.427    
     64000   1.0068907      0.0023323615  -0.0020278726   22.061652      20.566419      1.4952327      0.013750276    64189.207    
     65000   0.98723233     0.0023323615   0.0022441476   22.031073      20.565033      1.46604        0.0066686189   64502.854    
     66000   1.0273881      0.0023323615  -0.0003515278   22.183579      20.657908      1.5256713      0              62857.024    
     67000   0.96528212     0.0023323615  -0.00014822656  21.9396        20.506156      1.4334439      0.010365557    64104.652    
     68000   1.069702       0.0023323615   9.4754668e-05  22.081119      20.492611      1.5885075      0.00049153926  62230.457    
     69000   1.1229502      0.0023323615   0.0011504079   22.200329      20.532748      1.6675811      0.0068454249   64521.824    
     70000   1.0062775      0.0023323615  -0.00085311964  22.094021      20.599699      1.4943221      0.013222355    63425.396    
     71000   1.0906935      0.0023323615   0.00015260357  22.145362      20.525682      1.6196798      0.018338513    63497.869    
     72000   1.010401       0.0023323615  -6.0487182e-06  22.154105      20.653659      1.5004455      0.0013793953   63068.44     
     73000   1.1177599      0.0023323615  -0.0034084797   22.254435      20.594562      1.6598735      0.00011231735  65211.855    
     74000   0.9768019      0.0023323615   0.00016143893  22.07312       20.622569      1.4505508      0.0084515956   63655.438    
     75000   1.1360996      0.0023323615   0.002159116    22.161595      20.474487      1.6871079      0.0089909162   64169.033    
     76000   0.97379329     0.0023323615  -0.00068458621  21.988928      20.542845      1.446083       0              63168.221    
     77000   0.94876793     0.0023323615  -0.0016073976   21.923496      20.514575      1.4089204      0.017745108    63341.797    
     78000   0.83947996     0.0023323615  -0.00062768559  21.726727      20.480099      1.2466277      0.0054510099   63743.614    
     79000   1.0090614      0.0023323615  -0.00080262643  22.068192      20.569736      1.4984562      0.00023011166  64141.522    
     80000   1.1217643      0.0023323615  -0.0038177864   22.367902      20.702082      1.66582        0.032902439    63965.637    
     81000   1.0240158      0.0023323615   0.00023547123  22.031597      20.510933      1.5206635      0.0068767308   62970.313    
     82000   1.003236       0.0023323615  -0.0022802982   21.894199      20.404393      1.4898055      0.019136282    62079.161    
     83000   1.0554159      0.0023323615   0.004011718    22.104562      20.537269      1.5672927      0.0080869707   61848.737    
     84000   0.83527346     0.0023323615  -0.0034122221   21.874648      20.634267      1.2403811      0.0030083664   63189.376    
     85000   1.036002       0.0023323615   0.0013573923   21.962923      20.42446       1.5384629      0.015709144    63981.545    
     86000   0.9432002      0.0023323615  -0.0032183248   21.913588      20.512936      1.4006523      0.013730309    63851.138    
     87000   0.95566008     0.0023323615  -0.00049614223  21.91653       20.497375      1.4191552      0.0035862035   63079.32     
     88000   0.93373351     0.0023323615  -0.00097093893  21.870485      20.483891      1.3865943      0.0018212145   62548.479    
     89000   0.9684944      0.0023323615  -0.00047342045  21.973429      20.535215      1.4382142      0.00087524744  63089.604    
     90000   0.98293324     0.0023323615  -0.0032204602   22.050919      20.591263      1.4596559      0.015353933    64285.989    
     91000   1.0832827      0.0023323615   0.0048517083   22.11977       20.511095      1.6086749      0.0052867789   64945.899    
     92000   0.85899662     0.0023323615  -0.0013049519   21.765697      20.490087      1.27561        0.0024124001   64757.629    
     93000   0.96176266     0.0023323615  -4.4223672e-05  21.874222      20.446004      1.4282176      0.0045653365   65164.011    
     94000   0.96019503     0.0023323615   0.00024459347  21.944954      20.519064      1.4258896      3.8053462e-05  64419.213    
     95000   0.94702149     0.0023323615  -0.0033658915   21.86315       20.456823      1.4063269      0              65270.713    
     96000   0.91119348     0.0023323615  -0.0013197298   21.825018      20.471896      1.3531223      0.00043282989  63991.305    
     97000   1.0016687      0.0023323615  -0.0019514304   22.013024      20.525546      1.487478       0.0048369955   63326.125    
     98000   1.02143        0.0023323615  -0.0057874974   22.177965      20.661142      1.5168235      0              62672.781    
     99000   1.032786       0.0023323615   0.0018228259   21.975336      20.441649      1.5336871      7.1595851e-05  65197.124    
    100000   1.0594928      0.0023323615   0.0036169719   22.011024      20.437677      1.5733468      0.00032948157  63612.92     
    100362   1.1904942      0.0023323615  -0.00089755607  22.316856      20.548972      1.7678839      0.00063845255  62724.354    
Loop time of 1.55657 on 1 procs for 100000 steps with 100 atoms

Performance: 27753338.333 tau/day, 64243.839 timesteps/s
100.0% CPU use with 1 MPI tasks x 1 OpenMP threads

MPI task timing breakdown:
Section |  min time  |  avg time  |  max time  |%varavg| %total
---------------------------------------------------------------
Pair    | 0.059676   | 0.059676   | 0.059676   |   0.0 |  3.83
Bond    | 0.14607    | 0.14607    | 0.14607    |   0.0 |  9.38
Neigh   | 0.88807    | 0.88807    | 0.88807    |   0.0 | 57.05
Comm    | 0.07755    | 0.07755    | 0.07755    |   0.0 |  4.98
Output  | 0.0021341  | 0.0021341  | 0.0021341  |   0.0 |  0.14
Modify  | 0.34723    | 0.34723    | 0.34723    |   0.0 | 22.31
Other   |            | 0.03583    |            |       |  2.30

Nlocal:            100 ave         100 max         100 min
Histogram: 1 0 0 0 0 0 0 0 0 0
Nghost:             60 ave          60 max          60 min
Histogram: 1 0 0 0 0 0 0 0 0 0
Neighs:             36 ave          36 max          36 min
Histogram: 1 0 0 0 0 0 0 0 0 0

Total # of neighbors = 36
Ave neighs/atom = 0.36
Ave special neighs/atom = 1.98
Neighbor list builds = 9821
Dangerous builds = 8265
unfix           nvtSoft
unfix           rampSoft
reset_timestep  0

write_data      ${outputfile_relaxed}
write_data      5_relaxed.data
System init for write_data ...
Generated 0 of 6 mixed pair_coeff terms from geometric mixing rule
WARNING: Communication cutoff 1.3 is shorter than a bond length based estimate of 1.7550000000000001. This may lead to errors. (src/comm.cpp:727)
WARNING: Not all mixed pair coeffs generated from mixing. Use write_data with 'pair ij' option to store all pair coeffs. (src/write_data.cpp:309)

###########################################################################
# Full LJ with Coulomb
######################################################################

# Cutoffs and parameters:
# - Values: Marcel Verkade's Bachelor Thesis
# - Mapping to atom groups: Patrick Onck's paper
# - 1: aliphatic, 2: aromatic, 3: anion, 4: cation
# pair_style	lj/cut/coul/cut <lj_cut_global> <coul_cut_global>
# pair_coeff	<type_1>  <type_2>  <eps>  <sigma>  <r_cut_lj>  <r_cut_coul>

# Problem: Onck's model is much more complex, and Marcel has no sigma reported
# Using sigma=1 randomly

variable		glob_ljeps equal 1.0
variable		glob_ljsig 	equal 1.0
variable		glob_coulcut equal 10.0
variable		att_ljcut equal 2.50
variable		rep_ljcut equal 1.12

pair_style		lj/cut/coul/cut 						${att_ljcut} 	${glob_coulcut}
pair_style		lj/cut/coul/cut 						2.5 	${glob_coulcut}
pair_style		lj/cut/coul/cut 						2.5 	10
pair_coeff		1 1 	${glob_ljeps} 	${glob_ljsig}	${att_ljcut} 	${glob_coulcut}
pair_coeff		1 1 	1 	${glob_ljsig}	${att_ljcut} 	${glob_coulcut}
pair_coeff		1 1 	1 	1	${att_ljcut} 	${glob_coulcut}
pair_coeff		1 1 	1 	1	2.5 	${glob_coulcut}
pair_coeff		1 1 	1 	1	2.5 	10
pair_coeff		1 2 	${glob_ljeps} 	${glob_ljsig}	${att_ljcut} 	${glob_coulcut}
pair_coeff		1 2 	1 	${glob_ljsig}	${att_ljcut} 	${glob_coulcut}
pair_coeff		1 2 	1 	1	${att_ljcut} 	${glob_coulcut}
pair_coeff		1 2 	1 	1	2.5 	${glob_coulcut}
pair_coeff		1 2 	1 	1	2.5 	10
pair_coeff		1 3 	${glob_ljeps} 	${glob_ljsig}	${rep_ljcut} 	${glob_coulcut}
pair_coeff		1 3 	1 	${glob_ljsig}	${rep_ljcut} 	${glob_coulcut}
pair_coeff		1 3 	1 	1	${rep_ljcut} 	${glob_coulcut}
pair_coeff		1 3 	1 	1	1.12 	${glob_coulcut}
pair_coeff		1 3 	1 	1	1.12 	10
pair_coeff		1 4 	${glob_ljeps} 	${glob_ljsig}	${rep_ljcut} 	${glob_coulcut}
pair_coeff		1 4 	1 	${glob_ljsig}	${rep_ljcut} 	${glob_coulcut}
pair_coeff		1 4 	1 	1	${rep_ljcut} 	${glob_coulcut}
pair_coeff		1 4 	1 	1	1.12 	${glob_coulcut}
pair_coeff		1 4 	1 	1	1.12 	10
pair_coeff		2 2 	${glob_ljeps} 	${glob_ljsig}	${att_ljcut} 	${glob_coulcut}
pair_coeff		2 2 	1 	${glob_ljsig}	${att_ljcut} 	${glob_coulcut}
pair_coeff		2 2 	1 	1	${att_ljcut} 	${glob_coulcut}
pair_coeff		2 2 	1 	1	2.5 	${glob_coulcut}
pair_coeff		2 2 	1 	1	2.5 	10
pair_coeff		2 3 	${glob_ljeps} 	${glob_ljsig}	${rep_ljcut} 	${glob_coulcut}
pair_coeff		2 3 	1 	${glob_ljsig}	${rep_ljcut} 	${glob_coulcut}
pair_coeff		2 3 	1 	1	${rep_ljcut} 	${glob_coulcut}
pair_coeff		2 3 	1 	1	1.12 	${glob_coulcut}
pair_coeff		2 3 	1 	1	1.12 	10
pair_coeff		2 4 	${glob_ljeps} 	${glob_ljsig}	${att_ljcut} 	${glob_coulcut}
pair_coeff		2 4 	1 	${glob_ljsig}	${att_ljcut} 	${glob_coulcut}
pair_coeff		2 4 	1 	1	${att_ljcut} 	${glob_coulcut}
pair_coeff		2 4 	1 	1	2.5 	${glob_coulcut}
pair_coeff		2 4 	1 	1	2.5 	10
pair_coeff		3 3 	${glob_ljeps} 	${glob_ljsig}	${rep_ljcut} 	${glob_coulcut}
pair_coeff		3 3 	1 	${glob_ljsig}	${rep_ljcut} 	${glob_coulcut}
pair_coeff		3 3 	1 	1	${rep_ljcut} 	${glob_coulcut}
pair_coeff		3 3 	1 	1	1.12 	${glob_coulcut}
pair_coeff		3 3 	1 	1	1.12 	10
pair_coeff		3 4 	${glob_ljeps} 	${glob_ljsig}	${att_ljcut} 	${glob_coulcut}
pair_coeff		3 4 	1 	${glob_ljsig}	${att_ljcut} 	${glob_coulcut}
pair_coeff		3 4 	1 	1	${att_ljcut} 	${glob_coulcut}
pair_coeff		3 4 	1 	1	2.5 	${glob_coulcut}
pair_coeff		3 4 	1 	1	2.5 	10
pair_coeff		4 4 	${glob_ljeps} 	${glob_ljsig}	${rep_ljcut} 	${glob_coulcut}
pair_coeff		4 4 	1 	${glob_ljsig}	${rep_ljcut} 	${glob_coulcut}
pair_coeff		4 4 	1 	1	${rep_ljcut} 	${glob_coulcut}
pair_coeff		4 4 	1 	1	1.12 	${glob_coulcut}
pair_coeff		4 4 	1 	1	1.12 	10


fix             noDriftRot 	all momentum 10 linear 1 1 1 angular
fix             nvt1 		all nvt temp ${Temp} ${Temp} 0.5
fix             nvt1 		all nvt temp 1 ${Temp} 0.5
fix             nvt1 		all nvt temp 1 1 0.5

# dump          assemble 	all custom 1000 				${outputfile_selfasb} id type xu yu zu vx vy vz
dump            lindump 	all custom ${subsample_rate} 	${outputfile_trajlin} id type xu yu zu vx vy vz
dump            lindump 	all custom 1000 	${outputfile_trajlin} id type xu yu zu vx vy vz
dump            lindump 	all custom 1000 	6_b_trajlin.data id type xu yu zu vx vy vz

run             ${runtime}
run             1000000
Generated 0 of 6 mixed pair_coeff terms from geometric mixing rule
Neighbor list info ...
  update every 1 steps, delay 10 steps, check yes
  max neighbors/atom: 2000, page size: 100000
  master list distance cutoff = 10.3
  ghost atom cutoff = 10.3
  binsize = 5.15, bins = 7 7 7
  1 neighbor lists, perpetual/occasional/extra = 1 0 0
  (1) pair lj/cut/coul/cut, perpetual
      attributes: half, newton on
      pair build: half/bin/newton
      stencil: half/bin/3d
      bin: standard
Per MPI rank memory allocation (min/avg/max) = 7.712 | 7.712 | 7.712 Mbytes
   Step          Temp         Density         Press          TotEng         PotEng         KinEng         E_pair         S/CPU     
         0   1.1904942      0.0023323615  -0.0015237583   21.905769      20.137885      1.7678839     -0.41044927     0            
      1000   0.96471051     0.0023323615  -0.0020917473   21.208281      19.775685      1.4325951     -0.72740189     24564.265    
      2000   0.91111268     0.0023323615  -0.0017069658   21.201423      19.84842       1.3530023     -0.64500642     22977.296    
      3000   1.0031494      0.0023323615   0.0024132825   21.029743      19.540066      1.4896768     -1.0167758      20049.293    
      4000   0.94444645     0.0023323615  -0.0035055702   20.487474      19.084971      1.402503      -1.3581505      15256.456    
      5000   0.98380065     0.0023323615   0.0063289146   20.664454      19.20351       1.460944      -1.3326876      13745.42     
      6000   0.94806649     0.0023323615  -0.00053323486  20.495267      19.087388      1.4078787     -1.3496584      13782.09     
      7000   0.95465394     0.0023323615   0.0017653862   20.291582      18.873921      1.4176611     -1.5787059      13731.653    
      8000   0.82881744     0.0023323615   9.3651794e-05  20.208789      18.977995      1.2307939     -1.4794277      13838.822    
      9000   1.0160951      0.0023323615   0.00071895427  20.704318      19.195417      1.5089012     -1.3639155      13865.39     
     10000   0.98246121     0.0023323615  -0.005467271    20.367966      18.909011      1.4589549     -1.6198917      13748.705    
     11000   1.0058026      0.0023323615   0.0013737479   20.401528      18.907911      1.4936169     -1.7428197      13748.014    
     12000   1.1170434      0.0023323615  -0.004477012    20.857616      19.198807      1.6588094     -1.4267747      13640.733    
     13000   0.96279214     0.0023323615   0.0032321044   20.42153       18.991784      1.4297463     -1.5438801      13753.659    
     14000   1.1090669      0.0023323615  -0.0024290912   20.703662      19.056698      1.6469644     -1.6643281      13607.566    
     15000   0.96062909     0.0023323615  -0.002889285    20.285923      18.859389      1.4265342     -1.6040755      13548.751    
     16000   0.90087933     0.0023323615   0.0037462708   19.938928      18.601122      1.3378058     -1.85291        13493.956    
     17000   1.0459711      0.0023323615  -0.002786898    20.417775      18.864508      1.5532671     -1.657611       13715.906    
     18000   1.0905888      0.0023323615   0.0024568276   20.302179      18.682655      1.6195244     -1.8632975      13729.579    
     19000   1.1174221      0.0023323615  -0.00039025584  20.608471      18.949099      1.6593718     -1.6013851      13682.574    
     20000   1.0339817      0.0023323615   0.00018880005  20.459619      18.924156      1.5354629     -1.5417067      13720.137    
     21000   1.102674       0.0023323615   0.0019215948   20.461834      18.824363      1.6374709     -1.6951047      13821.227    
     22000   0.90164162     0.0023323615   0.00018909376  20.243308      18.90437       1.3389378     -1.6858165      13795.668    
     23000   0.92098439     0.0023323615  -0.0018607431   20.242198      18.874536      1.3676618     -1.5176708      13799.485    
     24000   0.85205366     0.0023323615   0.0041270531   20.177661      18.912361      1.2652997     -1.6075542      13777.654    
     25000   1.0072907      0.0023323615   0.00021524208  20.360369      18.864543      1.4958268     -1.5850314      13742.535    
     26000   0.98780614     0.0023323615  -0.00045101151  20.311861      18.844969      1.4668921     -1.6084835      13584.715    
     27000   1.1265634      0.0023323615  -0.0022490038   20.660149      18.987202      1.6729467     -1.6015343      13723.153    
     28000   0.91189267     0.0023323615   0.00037450681  20.18218       18.82802       1.3541606     -1.6549275      13651.858    
     29000   1.0404584      0.0023323615  -0.00024529351  20.302863      18.757782      1.5450808     -1.6457535      13483.842    
     30000   1.0148864      0.0023323615   0.0018645003   20.31355       18.806444      1.5071063     -1.7799945      13572.858    
     31000   0.93484256     0.0023323615  -0.0060353268   20.356744      18.968502      1.3882412     -1.6255275      13418.755    
     32000   1.0462121      0.0023323615  -0.0019712946   20.584932      19.031307      1.553625      -1.5369634      13554.904    
     33000   0.83137163     0.0023323615  -0.0014705244   19.737124      18.502537      1.2345869     -1.9255605      13508.48     
     34000   1.0763852      0.0023323615   0.00061759306  20.324329      18.725896      1.5984321     -1.7869341      13546.287    
     35000   1.1094612      0.0023323615  -0.0020711284   20.044498      18.396948      1.6475498     -2.0458287      13558.841    
     36000   0.85805243     0.0023323615  -0.0028403747   20.232726      18.958518      1.2742079     -1.6445592      13743.328    
     37000   0.829377       0.0023323615   0.0040114668   20.367187      19.135562      1.2316248     -1.3855778      13726.401    
     38000   1.0231589      0.0023323615  -0.0033702397   20.446372      18.926981      1.5193909     -1.591592       13613.245    
     39000   0.84817068     0.0023323615  -0.0049363177   20.398472      19.138939      1.2595335     -1.4501716      13667.13     
     40000   1.0374352      0.0023323615   0.002147218    20.542865      19.002274      1.5405913     -1.4554331      14356.561    
     41000   1.019125       0.0023323615  -0.0058788449   20.207104      18.693703      1.5134007     -1.7692063      14602.323    
     42000   1.0744534      0.0023323615  -0.00140906     20.233328      18.637765      1.5955632     -1.8943018      13767.462    
     43000   1.0483944      0.0023323615   0.00094104677  20.438619      18.881753      1.5568657     -1.6713635      13563.158    
     44000   1.0608541      0.0023323615  -0.00016226059  20.859798      19.284429      1.5753683     -1.2449276      13663.078    
     45000   1.1361572      0.0023323615  -0.002884384    20.814836      19.127643      1.6871934     -1.5170924      13708.584    
     46000   1.0013664      0.0023323615  -0.0013808339   20.329284      18.842255      1.4870291     -1.5575055      13669.683    
     47000   1.1121605      0.0023323615  -0.0018270446   20.460226      18.808667      1.6515583     -1.7222166      14084.006    
     48000   1.0610592      0.0023323615   0.0010287119   20.201721      18.626048      1.575673      -1.9478525      13446.768    
     49000   0.94968697     0.0023323615  -0.00021529078  20.28548       18.875195      1.4102851     -1.7220712      13566.047    
     50000   0.88553545     0.0023323615   0.00086386869  20.098556      18.783536      1.3150201     -1.7331126      13396.991    
     51000   0.88956908     0.0023323615   0.0016008609   20.225898      18.904888      1.3210101     -1.5399051      13565.925    
     52000   0.98992033     0.0023323615  -0.0028953838   20.286211      18.816179      1.4700317     -1.8487762      13411.685    
     53000   0.98551821     0.0023323615  -0.00092099677  20.074878      18.611383      1.4634945     -1.8186738      13393.981    
     54000   0.92992142     0.0023323615   0.0012184919   20.024207      18.643274      1.3809333     -1.7440018      13398.683    
     55000   0.87470969     0.0023323615  -0.000332861    20.073487      18.774543      1.2989439     -1.6826456      13421.75     
     56000   1.044357       0.0023323615  -0.00082724431  20.404296      18.853426      1.5508702     -1.5658068      12430.281    
     57000   1.0624882      0.0023323615   0.00047619033  20.609137      19.031342      1.577795      -1.4768586      13682.938    
     58000   0.99329673     0.0023323615  -0.0045517339   20.26145       18.786404      1.4750456     -1.850184       13581.735    
     59000   1.2746928      0.0023323615   0.0017357327   20.507126      18.614207      1.8929188     -1.8652777      13597.916    
     60000   1.0183177      0.0023323615   0.00083557027  20.268343      18.756141      1.5122018     -1.7096132      13460.331    
     61000   0.86563909     0.0023323615  -0.00081523479  20.287869      19.002395      1.285474      -1.6199028      13535.073    
     62000   0.99440833     0.0023323615  -0.0022215883   20.559224      19.082528      1.4766964     -1.5277457      13609.252    
     63000   0.98877098     0.0023323615  -0.0014897598   20.499997      19.031672      1.4683249     -1.5290872      13698.479    
     64000   0.83291948     0.0023323615   0.00044745357  20.177365      18.940479      1.2368854     -1.5054009      13627.357    
     65000   0.97231699     0.0023323615  -0.0010425662   20.636442      19.192552      1.4438907     -1.3288458      13622.458    
     66000   0.90382935     0.0023323615  -0.0050006021   20.100462      18.758276      1.3421866     -1.6869026      13377.012    
     67000   0.90777074     0.0023323615   0.00028714984  20.242205      18.894166      1.3480395     -1.6012317      13453.4      
     68000   1.0720081      0.0023323615  -0.0024376466   20.544164      18.952232      1.591932      -1.5469596      13524.201    
     69000   0.96479444     0.0023323615  -0.001256105    20.458528      19.025808      1.4327197     -1.4086601      13632.2      
     70000   0.95215034     0.0023323615   0.0010267417   20.346185      18.932242      1.4139433     -1.6235012      13629.536    
     71000   0.96880622     0.0023323615  -0.0040292808   20.430739      18.992062      1.4386772     -1.6436098      13577.917    
     72000   0.94894739     0.0023323615   0.0044397028   20.370432      18.961245      1.4091869     -1.5995694      13058.716    
     73000   0.97328828     0.0023323615  -0.00067910649  20.254844      18.809511      1.4453331     -1.6566155      13498.641    
     74000   0.92779153     0.0023323615   0.0046701111   20.018715      18.640944      1.3777704     -1.8251195      13524.432    
     75000   1.0870376      0.0023323615  -0.0026996018   20.432353      18.818102      1.6142509     -1.7554944      13499.983    
     76000   0.97426435     0.0023323615  -0.0018932537   20.41568       18.968898      1.4467826     -1.5395972      13545.938    
     77000   0.87591261     0.0023323615   0.0015377838   20.172971      18.872241      1.3007302     -1.5879736      13609.492    
     78000   0.9980007      0.0023323615   0.0036500714   20.229768      18.747737      1.482031      -1.7443181      13507.65     
     79000   1.1039111      0.0023323615  -0.004056247    20.555537      18.916229      1.6393079     -1.5845322      13461.106    
     80000   0.87260764     0.0023323615   0.00043084782  19.985713      18.689891      1.2958224     -1.7723519      13589.713    
     81000   0.89476991     0.0023323615  -0.0021018786   20.21463       18.885897      1.3287333     -1.5350778      13622.817    
     82000   1.004714       0.0023323615  -0.0044227076   19.898233      18.406233      1.4920003     -1.9850541      13507.38     
     83000   1.0000144      0.0023323615  -0.0021039822   20.27821       18.793189      1.4850214     -1.6760321      13531.601    
     84000   0.93488114     0.0023323615  -0.00011456862  20.112823      18.724524      1.3882985     -1.7108637      13826.593    
     85000   0.91199682     0.0023323615  -0.0012089995   20.23917       18.884855      1.3543153     -1.7755601      13773.479    
     86000   0.96204358     0.0023323615   0.00072546434  20.064071      18.635437      1.4286347     -1.9499686      13749.004    
     87000   0.8491591      0.0023323615   0.0019180699   19.768881      18.50788       1.2610013     -1.9211131      13724.901    
     88000   1.0677573      0.0023323615   0.0010983713   20.257172      18.671552      1.5856195     -1.8905514      13317.076    
     89000   1.0374634      0.0023323615  -0.0023764595   20.410958      18.870325      1.5406332     -1.676008       13443.266    
     90000   1.0634121      0.0023323615   0.0004807663   20.499856      18.920689      1.579167      -1.6435227      13589.065    
     91000   0.97359714     0.0023323615  -0.0064261876   20.215104      18.769312      1.4457918     -1.7642267      13584.876    
     92000   1.1475086      0.0023323615   0.00017651476  20.857185      19.153135      1.7040503     -1.4074564      13117.825    
     93000   1.0189169      0.0023323615   0.00099980137  20.605852      19.09276       1.5130916     -1.5996774      13334.826    
     94000   1.2951115      0.0023323615   0.0022950553   20.781376      18.858136      1.9232406     -1.7695456      12554.627    
     95000   1.0719959      0.0023323615   0.00327271     20.519754      18.92784       1.5919139     -1.7207988      11230.229    
     96000   0.89685081     0.0023323615  -0.0014735256   20.091222      18.759398      1.3318235     -1.7327878      13726.596    
     97000   0.91697112     0.0023323615  -0.0019195441   19.875744      18.514042      1.3617021     -1.9150365      13767.789    
     98000   1.0475546      0.0023323615  -0.0052301776   20.281156      18.725537      1.5556186     -1.8163273      13808.444    
     99000   1.0346334      0.0023323615   0.0013805455   20.349566      18.813135      1.5364306     -1.7778362      13786.939    
    100000   0.88320612     0.0023323615   0.0012902687   20.152169      18.840608      1.3115611     -1.6661546      13819.613    
    101000   1.0989891      0.0023323615   0.00062431776  20.469913      18.837914      1.6319988     -1.691282       13687.454    
    102000   0.94848641     0.0023323615   0.00056766825  20.244329      18.835826      1.4085023     -1.573859       13510.501    
    103000   0.93005327     0.0023323615  -0.0006843264   20.037568      18.656439      1.3811291     -1.8702535      13571.319    
    104000   0.91086914     0.0023323615  -0.0011119552   20.188325      18.835684      1.3526407     -1.7100666      13436.407    
    105000   1.0521281      0.0023323615   0.0025584191   20.263316      18.700906      1.5624102     -1.8642895      13353.619    
    106000   1.0188036      0.0023323615   0.00070522269  20.429332      18.916408      1.5129233     -1.5817569      13356.843    
    107000   1.2121237      0.0023323615   0.0049831189   20.852259      19.052255      1.8000037     -1.5274678      13470.431    
    108000   0.96403545     0.0023323615  -0.00019878565  20.396195      18.964603      1.4315927     -1.5553865      13628.624    
    109000   1.1184439      0.0023323615   0.0039292914   20.470072      18.809183      1.6608893     -1.7038109      13318.208    
    110000   0.9960862      0.0023323615  -0.00098012638  20.331857      18.852669      1.479188      -1.6914185      13313.035    
    111000   0.97502938     0.0023323615   0.00029094679  20.415831      18.967913      1.4479186     -1.5336134      13358.338    
    112000   1.0239046      0.0023323615   0.00091527979  20.278169      18.757671      1.5204983     -1.7498699      13381.497    
    113000   0.88013158     0.0023323615   0.0020199091   20.178717      18.871721      1.3069954     -1.4907566      13358.793    
    114000   1.0052239      0.0023323615   0.00087714407  20.307805      18.815048      1.4927574     -1.6720177      13406.485    
    115000   1.049522       0.0023323615  -0.0005208416   20.2868        18.72826       1.5585401     -1.7393611      13485.97     
    116000   0.92791188     0.0023323615   0.0030872876   20.170275      18.792326      1.3779491     -1.6724343      13401.257    
    117000   1.0487737      0.0023323615   0.001988445    20.228972      18.671543      1.557429      -1.8158139      13353.752    
    118000   1.0067534      0.0023323615   0.0011064527   20.207865      18.712836      1.4950288     -1.6880476      13423.662    
    119000   0.91227785     0.0023323615  -0.0010388964   20.41432       19.059587      1.3547326     -1.4352896      13560.114    
    120000   0.97734542     0.0023323615  -0.0016001473   20.274441      18.823083      1.4513579     -1.681015       13519.98     
    121000   0.90912503     0.0023323615  -0.00085689476  20.53346       19.18341       1.3500507     -1.4282859      13544.181    
    122000   0.98426419     0.0023323615   0.0040141422   20.423156      18.961524      1.4616323     -1.5049406      13648.931    
    123000   1.0060755      0.0023323615  -0.0023072081   20.541524      19.047502      1.4940221     -1.4895406      13644.164    
    124000   1.0267107      0.0023323615  -0.0012148642   20.403308      18.878643      1.5246654     -1.6426361      13593.835    
    125000   0.84350578     0.0023323615  -0.0016278012   20.269868      19.017262      1.2526061     -1.4272994      13667.845    
    126000   1.0116119      0.0023323615  -0.0019279903   20.429617      18.927374      1.5022436     -1.6270266      13467.517    
    127000   1.1448612      0.0023323615   0.00051444537  20.249255      18.549136      1.7001188     -1.8238371      13437.594    
    128000   1.1141904      0.0023323615  -0.0013243448   20.416081      18.761508      1.6545728     -1.7478653      13395.642    
    129000   1.0213111      0.0023323615   0.002749941    20.345529      18.828882      1.5166471     -1.6463381      13448.515    
    130000   1.0602904      0.0023323615  -0.0003332097   20.64719       19.072658      1.5745313     -1.5131013      13630.293    
    131000   1.0965556      0.0023323615  -0.0012841655   20.426496      18.798111      1.6283851     -1.5937378      13566.827    
    132000   1.0442393      0.0023323615   0.0015251386   20.359341      18.808646      1.5506953     -1.7207469      13308.166    
    133000   1.04068        0.0023323615  -0.0033601258   20.046018      18.500608      1.5454097     -1.9144099      13244.471    
    134000   0.83464499     0.0023323615   0.00080999653  20.154831      18.915383      1.2394478     -1.6440612      13216.095    
    135000   0.97846348     0.0023323615   0.00080092856  20.157484      18.704466      1.4530183     -1.7137168      13194.327    
    136000   1.0011667      0.0023323615  -0.0025146763   20.140542      18.653809      1.4867326     -1.7870492      13404.612    
    137000   1.1333388      0.0023323615  -0.0020744713   20.391715      18.708707      1.6830081     -1.8892214      13314.669    
    138000   1.0025803      0.0023323615   9.1538832e-05  20.373129      18.884298      1.4888317     -1.6383941      13259.548    
    139000   0.92621306     0.0023323615  -0.00041545346  20.296201      18.920774      1.3754264     -1.4921862      13285.977    
    140000   0.99799506     0.0023323615   0.0013628528   20.400431      18.918408      1.4820227     -1.5675278      13606.394    
    141000   1.1415132      0.0023323615   0.0017893611   20.423406      18.728259      1.6951471     -1.7178252      13249.624    
    142000   1.0249603      0.0023323615  -0.0020703786   20.433553      18.911487      1.522066      -1.6389276      13317.593    
    143000   0.91579639     0.0023323615   0.0019411624   20.366566      19.006608      1.3599576     -1.5459249      13393.897    
    144000   0.89988502     0.0023323615  -0.0037444956   20.137632      18.801303      1.3363293     -1.6289898      13539.508    
    145000   1.0214417      0.0023323615   0.00085583295  20.18942       18.672579      1.5168409     -1.7274256      13523.252    
    146000   0.97078713     0.0023323615  -1.8134486e-05  20.285733      18.844114      1.4416189     -1.6807845      13275.298    
    147000   0.97837502     0.0023323615  -0.0023047529   20.597655      19.144768      1.4528869     -1.5775045      13750.972    
    148000   1.0047532      0.0023323615   0.0020530933   20.463433      18.971374      1.4920586     -1.6060592      13187.781    
    149000   0.98720972     0.0023323615   0.00094059371  20.148315      18.682309      1.4660064     -1.7937525      13489.495    
    150000   0.80763727     0.0023323615  -0.0034286703   20.241392      19.04205       1.1993414     -1.4087905      13593.063    
    151000   0.87764401     0.0023323615  -0.0012256064   20.158449      18.855148      1.3033014     -1.6082511      13830.18     
    152000   1.061191       0.0023323615  -0.0036460854   20.493097      18.917228      1.5758687     -1.5857953      13273.156    
    153000   1.1465736      0.0023323615   0.00038512945  20.583396      18.880735      1.7026617     -1.7750782      13164.191    
    154000   0.88477733     0.0023323615  -0.0020442347   20.436483      19.122588      1.3138943     -1.5613032      13677.868    
    155000   1.0544983      0.0023323615   0.0017230272   20.395237      18.829307      1.5659299     -1.5327019      13558.736    
    156000   1.2190546      0.0023323615  -0.00048553473  20.726275      18.915979      1.8102961     -1.6415158      13731.619    
    157000   1.1542025      0.0023323615   0.00073247679  20.613355      18.899364      1.7139907     -1.6728904      13565.414    
    158000   0.93234832     0.0023323615   0.0016244415   20.214415      18.829878      1.3845373     -1.7410706      13622.57     
    159000   0.92281079     0.0023323615  -0.0041814218   20.308929      18.938555      1.370374      -1.6608089      13664.077    
    160000   0.99977012     0.0023323615   0.0017672214   20.435387      18.950728      1.4846586     -1.5805503      13487.075    
    161000   0.95873738     0.0023323615   0.0035986396   20.519701      19.095976      1.423725      -1.5323656      13533.467    
    162000   0.97082402     0.0023323615   0.0010714285   20.297719      18.856045      1.4416737     -1.5959788      13592.144    
    163000   1.0410728      0.0023323615  -0.0014729275   20.510058      18.964064      1.5459932     -1.4114034      13552.874    
    164000   0.88159921     0.0023323615  -0.0050905394   20.504682      19.195507      1.3091748     -1.43613        13588.721    
    165000   0.93972703     0.0023323615  -0.0043902264   20.165866      18.770371      1.3954946     -1.647249       13557.948    
    166000   0.9175508      0.0023323615   0.0043772894   20.246965      18.884402      1.3625629     -1.5479906      13592.811    
    167000   0.90159316     0.0023323615   0.00050914661  20.149912      18.811046      1.3388658     -1.7037021      13580.693    
    168000   1.0569593      0.0023323615  -0.00080725327  20.431577      18.861993      1.5695846     -1.5977653      13769.441    
    169000   0.70957399     0.0023323615  -0.0010342162   20.360962      19.307244      1.0537174     -1.2165041      13690.783    
    170000   0.97995923     0.0023323615   0.001841725    20.386494      18.931255      1.4552395     -1.4839416      13648.824    
    171000   0.89817965     0.0023323615  -0.0019178371   20.431211      19.097415      1.3337968     -1.4344431      13600.421    
    172000   1.1397444      0.0023323615   0.0046795606   20.271379      18.578859      1.6925205     -1.8073292      13439.255    
    173000   0.90680699     0.0023323615   0.0011818941   20.27754       18.930932      1.3466084     -1.5581005      13479.29     
    174000   0.92165603     0.0023323615   0.0011997637   20.377877      19.009218      1.3686592     -1.5457163      13602.558    
    175000   1.0175976      0.0023323615  -0.0027372171   20.530301      19.019168      1.5111325     -1.5676054      13470.233    
    176000   1.0727342      0.0023323615   0.0020521263   20.648215      19.055205      1.5930103     -1.4830484      13563.127    
    177000   0.83718002     0.0023323615  -9.5005845e-05  20.477182      19.233969      1.2432123     -1.4036449      13429.958    
    178000   0.79809727     0.0023323615   0.00088963447  19.93881       18.753635      1.1851744     -1.7820574      13317.964    
    179000   1.0302647      0.0023323615   0.004287041    20.635425      19.105482      1.5299431     -1.5635555      13584.268    
    180000   0.98557522     0.0023323615   0.0011156129   20.400626      18.937046      1.4635792     -1.6853541      13493.387    
    181000   0.98563922     0.0023323615   0.00011094307  19.9914        18.527726      1.4636742     -1.8402078      13511.595    
    182000   0.94492395     0.0023323615  -0.0011046717   20.09436       18.691148      1.4032121     -1.785818       13519.872    
    183000   0.98524101     0.0023323615   0.0050882693   20.015254      18.552171      1.4630829     -1.9669622      13566.202    
    184000   1.0732475      0.0023323615  -0.0023627354   20.664018      19.070245      1.5937726     -1.5251991      13569.35     
    185000   1.1058177      0.0023323615   0.0001729175   20.599291      18.957152      1.6421393     -1.4882117      13524.747    
    186000   1.0729642      0.0023323615   0.00041079875  20.328046      18.734694      1.5933519     -1.8090483      13429.539    
    187000   0.97628677     0.0023323615  -0.00030343793  20.138419      18.688633      1.4497859     -1.7436457      13473.265    
    188000   0.99349911     0.0023323615   0.002082897    20.283971      18.808625      1.4753462     -1.6978515      13793.25     
    189000   1.1335844      0.0023323615   0.00046417335  20.39581       18.712437      1.6833728     -1.8535426      13684.431    
    190000   0.92281672     0.0023323615  -0.00021887764  20.51595       19.145567      1.3703828     -1.4773434      13788.076    
    191000   0.93311948     0.0023323615  -0.0022543484   20.43877       19.053087      1.3856824     -1.4209051      13124.904    
    192000   1.0494414      0.0023323615  -0.0018789487   20.449304      18.890883      1.5584204     -1.5713785      13017.842    
    193000   0.95747189     0.0023323615  -0.0029970428   20.431587      19.009741      1.4218458     -1.5795077      13600.151    
    194000   0.8803503      0.0023323615  -0.0038261886   20.392523      19.085203      1.3073202     -1.4938873      13595.273    
    195000   0.92251605     0.0023323615  -0.00090679474  20.305329      18.935392      1.3699363     -1.5783833      13769.958    
    196000   0.92817254     0.0023323615   0.00014383116  20.154183      18.775847      1.3783362     -1.7691321      13731.978    
    197000   0.90977986     0.0023323615  -0.0011557008   20.029165      18.678142      1.3510231     -1.7861834      13593.453    
    198000   0.91787872     0.0023323615   0.0023852409   20.244271      18.881221      1.3630499     -1.649161       13663.931    
    199000   0.83856149     0.0023323615  -0.0030495645   19.959688      18.714424      1.2452638     -1.8079941      13652.2      
    200000   1.0644741      0.0023323615   0.0036743818   20.385025      18.804281      1.5807441     -1.7321203      13608.742    
    201000   1.0793953      0.0023323615  -0.0060561545   20.58208       18.979178      1.6029021     -1.6670141      13556.939    
    202000   0.82825095     0.0023323615  -0.0026749455   20.296753      19.066801      1.2299527     -1.4548158      13604.859    
    203000   0.93783955     0.0023323615  -0.0023784334   20.452476      19.059784      1.3926917     -1.505288       13623.652    
    204000   1.0139866      0.0023323615  -0.00025677787  20.485671      18.979901      1.5057701     -1.5935584      13574.345    
    205000   1.048163       0.0023323615   0.0053630424   20.387467      18.830945      1.5565221     -1.7588963      13638.781    
    206000   0.8778204      0.0023323615  -0.001287906    20.17252       18.868956      1.3035633     -1.6319528      13663.899    
    207000   0.97775116     0.0023323615  -0.00089167175  20.367092      18.915131      1.4519605     -1.6144176      13629.979    
    208000   1.1407734      0.0023323615  -0.0030885509   20.507675      18.813626      1.6940485     -1.6157936      13578.269    
    209000   0.9064547      0.0023323615  -0.0054293145   20.564823      19.218737      1.3460852     -1.441987       13735.525    
    210000   0.93525076     0.0023323615   0.0033034136   20.258156      18.869309      1.3888474     -1.6973192      13750.373    
    211000   0.89231233     0.0023323615  -0.0039224218   20.146874      18.82179       1.3250838     -1.7031997      13589.902    
    212000   1.0329037      0.0023323615  -0.0015598075   20.356848      18.822986      1.533862      -1.5793643      13576.19     
    213000   0.94712687     0.0023323615  -0.004205833    20.19656       18.790076      1.4064834     -1.7557199      13703.109    
    214000   1.0252449      0.0023323615  -0.0012515799   20.422676      18.900187      1.5224887     -1.6352128      13516.65     
    215000   0.92423717     0.0023323615   0.0005272815   20.367586      18.995094      1.3724922     -1.52841        13536.446    
    216000   1.1839502      0.0023323615  -0.00016263957  20.754081      18.995915      1.758166      -1.4295924      13604.717    
    217000   0.96789721     0.0023323615  -0.0014691441   20.503841      19.066514      1.4373274     -1.543115       13408.273    
    218000   0.97523766     0.0023323615   0.00052258587  20.189276      18.741048      1.4482279     -1.6342901      13460.099    
    219000   1.002592       0.0023323615   0.00029734258  20.209951      18.721102      1.4888492     -1.675938       13184.989    
    220000   0.90176746     0.0023323615   0.0032409185   20.47188       19.132755      1.3391247     -1.4072539      13884.189    
    221000   1.2238903      0.0023323615   0.0012725059   20.977977      19.1605        1.817477      -1.4352578      13780.193    
    222000   1.0084437      0.0023323615   0.0011365069   20.565886      19.068347      1.4975389     -1.5469195      13770.353    
    223000   0.94175915     0.0023323615   0.0024542168   20.235375      18.836863      1.3985123     -1.5873559      13751.796    
    224000   1.0594096      0.0023323615   0.0005439735   20.330738      18.757515      1.5732233     -1.6974554      13647.77     
    225000   0.90918031     0.0023323615   0.0050619165   20.089111      18.738979      1.3501328     -1.7444245      13754.072    
    226000   0.97300051     0.0023323615  -0.0041859938   20.317814      18.872909      1.4449058     -1.6165747      13814.866    
    227000   0.99455774     0.0023323615  -0.001225784    20.279081      18.802163      1.4769182     -1.5628283      13763.792    
    228000   1.1456057      0.0023323615   0.0034805296   20.730886      19.029661      1.7012244     -1.526823       13664.341    
    229000   1.0284048      0.0023323615   0.0030594821   20.407329      18.880148      1.5271811     -1.5955118      13651.752    
    230000   0.8531949      0.0023323615   0.0032148981   20.210824      18.943829      1.2669944     -1.6582         13601.33     
    231000   0.94020351     0.0023323615   0.00048200506  20.427743      19.031541      1.3962022     -1.5504048      13582.246    
    232000   1.1199119      0.0023323615  -0.0021229286   20.618637      18.955568      1.6630692     -1.5582809      13505.65     
    233000   0.99213897     0.0023323615   0.00017688424  20.385438      18.912112      1.4733264     -1.5996913      13484.066    
    234000   0.97711523     0.0023323615  -0.0014651134   20.152027      18.701011      1.4510161     -1.7305814      13342.852    
    235000   0.99178315     0.0023323615   0.0038557347   20.168593      18.695795      1.472798      -1.6534616      13336.3      
    236000   0.90824824     0.0023323615   0.00069294445  20.2956        18.946851      1.3487486     -1.57153        13681.974    
    237000   0.97493023     0.0023323615  -0.00051379132  20.283336      18.835565      1.4477714     -1.67404        13704.814    
    238000   0.93600426     0.0023323615  -0.0014289191   20.409495      19.019528      1.3899663     -1.500049       13058.07     
    239000   1.0915861      0.0023323615   0.0007983204   20.367501      18.746495      1.6210054     -1.7707861      13608.039    
    240000   0.96442229     0.0023323615  -0.0018815774   20.209303      18.777136      1.4321671     -1.7851514      13568.888    
    241000   0.99317646     0.0023323615  -0.00075202682  20.389642      18.914775      1.474867      -1.5535577      13474.925    
    242000   1.1185245      0.0023323615   0.0022354168   20.401806      18.740797      1.6610089     -1.7518154      13508.05     
    243000   1.0350821      0.0023323615   0.0028241097   20.329895      18.792798      1.537097      -1.7468685      13550.206    
    244000   0.90440732     0.0023323615  -0.0011487414   20.084669      18.741624      1.3430449     -1.8823104      13703.169    
    245000   1.2329026      0.0023323615  -0.0020209529   20.86827       19.037409      1.8308604     -1.5369651      13658.372    
    246000   0.93684701     0.0023323615   0.00016678513  20.345273      18.954055      1.3912178     -1.5630636      13592.904    
    247000   1.1300341      0.0023323615   0.0032693894   20.583611      18.90551       1.6781007     -1.7188265      13652.337    
    248000   0.90288875     0.0023323615   0.0016967802   20.093416      18.752626      1.3407898     -1.7600484      13665.355    
    249000   0.91311905     0.0023323615  -0.00060726328  20.290952      18.934971      1.3559818     -1.7035299      13924.316    
    250000   1.1340929      0.0023323615   0.0001434447   20.194989      18.510861      1.6841279     -2.0174631      13934.076    
    251000   1.0904447      0.0023323615  -0.007165113    20.499706      18.880396      1.6193104     -1.6430088      13868.885    
    252000   1.0005696      0.0023323615   0.0020846527   20.166564      18.680718      1.4858459     -1.7618717      13859.778    
    253000   0.90032921     0.0023323615   0.003701539    20.110886      18.773897      1.3369889     -1.7379771      13807.902    
    254000   1.0129116      0.0023323615   0.0037288838   20.480878      18.976704      1.5041737     -1.4846377      13574.631    
    255000   0.99920697     0.0023323615   0.0049948065   20.304386      18.820564      1.4838223     -1.6185385      13545.887    
    256000   0.97402015     0.0023323615  -0.0032598126   20.173595      18.727175      1.4464199     -1.7935121      13568.562    
    257000   1.18893        0.0023323615  -0.0022958367   20.654595      18.889034      1.765561      -1.6403082      13593.053    
    258000   1.0075004      0.0023323615   0.0037794659   20.460466      18.964328      1.4961381     -1.5123477      13479.001    
    259000   0.97554851     0.0023323615  -0.002100783    20.295017      18.846327      1.4486895     -1.6413961      13461.182    
    260000   1.0387691      0.0023323615   0.00081907893  20.25481       18.712238      1.5425722     -1.745754       13453.774    
    261000   0.94889388     0.0023323615   0.0037983538   20.315007      18.905899      1.4091074     -1.7479406      13408.147    
    262000   0.9788384      0.0023323615   0.0030979946   20.355836      18.902261      1.453575      -1.7895431      13343.198    
    263000   1.0504694      0.0023323615  -0.0027854209   20.148925      18.588978      1.559947      -1.8194799      13390.396    
    264000   0.97675535     0.0023323615  -0.0008462807   20.149169      18.698687      1.4504817     -1.7696641      13326.704    
    265000   0.94061684     0.0023323615  -0.0013637503   20.250772      18.853956      1.396816      -1.7994572      13616.081    
    266000   0.97074223     0.0023323615  -0.0016846357   20.18688       18.745328      1.4415522     -1.7429457      13326.295    
    267000   0.99396165     0.0023323615  -0.0046984122   20.44717       18.971137      1.4760331     -1.5915025      13305.877    
    268000   0.8644713      0.0023323615   0.0016608316   19.989847      18.706108      1.2837399     -1.7862978      13365.305    
    269000   0.88080951     0.0023323615  -0.0015268037   19.991004      18.683002      1.3080021     -1.7779398      13802.229    
    270000   1.014769       0.0023323615  -0.0011470135   20.343338      18.836406      1.5069319     -1.7320354      13766.649    
    271000   0.87111866     0.0023323615  -0.0040764697   20.547812      19.254201      1.2936112     -1.3651418      13803.773    
    272000   0.97866112     0.0023323615   0.00022276164  20.333117      18.879806      1.4533118     -1.5534478      14638.587    
    273000   0.97924504     0.0023323615   0.0022284849   20.344957      18.890778      1.4541789     -1.6144133      13812.478    
    274000   1.0158318      0.0023323615   0.00056210373  20.38952       18.88101       1.5085102     -1.5229255      13889.91     
    275000   0.888503       0.0023323615   0.00075760827  20.243321      18.923894      1.319427      -1.5042571      13910.088    
    276000   0.89845673     0.0023323615   0.00056286412  20.26201       18.927801      1.3342082     -1.5951985      13815.476    
    277000   1.0026888      0.0023323615   0.00093298595  20.493688      19.004695      1.4889929     -1.5685435      14094.951    
    278000   0.86423561     0.0023323615  -0.00085672951  20.307762      19.024372      1.2833899     -1.4973931      13881.524    
    279000   1.0180463      0.0023323615  -0.0040388424   20.484809      18.97301       1.5117988     -1.5454825      13674.493    
    280000   0.92271035     0.0023323615   0.0018697535   20.139715      18.76949       1.3702249     -1.7958538      13825.122    
    281000   1.0443723      0.0023323615   0.0025611117   20.361352      18.81046       1.5508929     -1.6905738      14330.501    
    282000   1.0595513      0.0023323615  -0.0020209273   20.419406      18.845973      1.5734336     -1.7464257      13849.091    
    283000   0.9691162      0.0023323615  -0.0014920542   20.374936      18.935799      1.4391376     -1.5019601      13973.493    
    284000   0.82708215     0.0023323615  -0.001534505    20.295581      19.067364      1.228217      -1.5512204      13490.38     
    285000   0.97752875     0.0023323615  -1.6188612e-06  20.410849      18.959219      1.4516302     -1.4700555      13997.549    
    286000   1.1081103      0.0023323615   0.0028022927   20.597579      18.952035      1.6455438     -1.4771365      13714.972    
    287000   1.0594155      0.0023323615   0.0014048061   20.366541      18.793309      1.573232      -1.7680712      13652.08     
    288000   0.94126581     0.0023323615  -0.00069209574  20.324252      18.926472      1.3977797     -1.5972367      13601.622    
    289000   1.0807946      0.0023323615   0.0011492037   20.526938      18.921958      1.60498       -1.6478672      13517.743    
    290000   0.97698159     0.0023323615  -0.0015705569   20.197287      18.746469      1.4508177     -1.8018756      13599.836    
    291000   1.0201886      0.0023323615   0.0025706755   20.578087      19.063107      1.51498       -1.5047419      13686.116    
    292000   0.97548825     0.0023323615   0.00020175897  20.225304      18.776704      1.4486001     -1.7443135      13526.921    
    293000   0.91496613     0.0023323615   0.0010582988   19.965436      18.606711      1.3587247     -1.9485019      13532.777    
    294000   0.99643934     0.0023323615  -0.0024470794   20.290778      18.811065      1.4797124     -1.6753938      13578.242    
    295000   0.97216281     0.0023323615  -0.0028543766   20.349861      18.906199      1.4436618     -1.520443       13554.451    
    296000   1.29511        0.0023323615   0.0021237664   20.925203      19.001964      1.9232383     -1.5774714      13660.563    
    297000   1.0254527      0.0023323615  -0.0029545852   20.556271      19.033473      1.5227973     -1.4627822      13634.064    
    298000   0.99286194     0.0023323615   0.0013300483   20.435362      18.960962      1.4744        -1.4865455      13620.369    
    299000   0.95442888     0.0023323615   0.0057169405   19.950197      18.53287       1.4173269     -1.9133162      13648.948    
    300000   1.0521459      0.0023323615   0.0063658053   20.350116      18.787679      1.5624366     -1.7871478      13659.237    
    301000   1.0222321      0.0023323615   0.00017074652  20.293384      18.775369      1.5180147     -1.7278         13642.291    
    302000   0.92016091     0.0023323615   0.00058083066  20.209872      18.843433      1.366439      -1.696895       13637.751    
    303000   1.1352053      0.0023323615   0.0036228459   20.511331      18.825552      1.6857799     -1.8069721      13615.098    
    304000   0.98111828     0.0023323615   0.0031240337   20.37843       18.921469      1.4569606     -1.544862       13552.62     
    305000   1.0807208      0.0023323615   0.004932367    20.253938      18.649068      1.6048705     -1.9145054      13571.032    
    306000   1.143528       0.0023323615   0.00040582189  20.626809      18.92867       1.6981391     -1.6065645      13560.274    
    307000   1.0769363      0.0023323615   0.00033643714  20.366636      18.767385      1.5992504     -1.7565474      13608.024    
    308000   1.1512704      0.0023323615   0.0030634053   20.514047      18.80441       1.7096366     -1.6344027      13706.389    
    309000   0.93178573     0.0023323615  -0.0025688115   20.429667      19.045965      1.3837018     -1.6157539      13596.247    
    310000   1.025178       0.0023323615   0.0031166136   20.248719      18.72633       1.5223894     -1.6536546      13604.971    
    311000   0.96168694     0.0023323615   0.00089715422  20.087006      18.658901      1.4281051     -1.8902011      13608.974    
    312000   1.2226923      0.0023323615   0.0015172356   20.769915      18.954217      1.815698      -1.5464686      13542.389    
    313000   0.85859165     0.0023323615  -0.0019469145   20.202589      18.92758       1.2750086     -1.5684962      13574.347    
    314000   1.0403223      0.0023323615   9.8747841e-05  20.773148      19.228269      1.5448786     -1.4106709      13591.154    
    315000   0.93996759     0.0023323615  -0.00045625477  20.432622      19.03677       1.3958519     -1.558239       13809.982    
    316000   1.111679       0.0023323615  -0.0024293439   20.943851      19.293007      1.6508433     -1.4706077      13711.904    
    317000   0.95567302     0.0023323615   0.0012662872   20.301975      18.882801      1.4191744     -1.5674798      13799.401    
    318000   0.93632638     0.0023323615  -0.0016532126   20.356946      18.966502      1.3904447     -1.5833552      13469.764    
    319000   1.005767       0.0023323615   0.004963314    20.330427      18.836863      1.493564      -1.6073291      14327.016    
    320000   0.9259998      0.0023323615   0.00040514944  20.094227      18.719117      1.3751097     -1.7472817      14765.021    
    321000   0.97534118     0.0023323615   0.0010272662   20.266286      18.817904      1.4483816     -1.8013238      14560.652    
    322000   1.0930493      0.0023323615  -0.00041865552  20.755448      19.13227       1.6231783     -1.4743761      14663.279    
    323000   1.078527       0.0023323615  -0.00419301     20.575544      18.973932      1.6016126     -1.6669753      13558.568    
    324000   1.0653124      0.0023323615  -0.0026706453   20.474359      18.89237       1.581989      -1.6712615      13812.962    
    325000   0.99547852     0.0023323615  -0.0016689455   20.231682      18.753396      1.4782856     -1.7675         14778.626    
    326000   0.87339923     0.0023323615  -0.0018398266   19.963395      18.666397      1.2969979     -1.8121078      14776.764    
    327000   1.0708544      0.0023323615  -0.0016166785   20.361693      18.771474      1.5902187     -1.7702281      14745.767    
    328000   0.95706083     0.0023323615  -0.00048561093  20.336108      18.914873      1.4212353     -1.7113974      14779.219    
    329000   0.97831629     0.0023323615  -0.0009713302   20.425393      18.972593      1.4527997     -1.6016208      14833.357    
    330000   0.95922513     0.0023323615  -0.00030422781  19.917396      18.492947      1.4244493     -1.9607524      14684.958    
    331000   0.92351956     0.0023323615   0.0018481419   20.116515      18.745089      1.3714265     -1.6222261      13588.39     
    332000   0.98646102     0.0023323615   0.00097632623  20.383574      18.91868       1.4648946     -1.5530195      13565.538    
    333000   1.0906284      0.0023323615  -0.0060228215   20.604943      18.98536       1.6195831     -1.481498       13407.005    
    334000   1.0552192      0.0023323615   0.0023550576   20.395991      18.828991      1.5670004     -1.6066722      13350.544    
    335000   0.96380492     0.0023323615  -0.00068883282  20.667583      19.236333      1.4312503     -1.3889689      13155.074    
    336000   1.0615696      0.0023323615  -0.0046890433   20.689263      19.112833      1.5764309     -1.4260293      13158.468    
    337000   0.9535399      0.0023323615  -0.0014592183   20.053582      18.637576      1.4160068     -1.8934926      13448.622    
    338000   0.85042301     0.0023323615  -0.001433658    20.000604      18.737726      1.2628782     -1.8923109      13190.412    
    339000   0.9959759      0.0023323615  -0.0026386874   20.355407      18.876383      1.4790242     -1.5460308      13555.044    
    340000   1.0241425      0.0023323615  -0.0039614835   20.893571      19.37272       1.5208516     -1.2612246      13915        
    341000   1.0057116      0.0023323615   0.00037252952  20.37858       18.885098      1.4934818     -1.6097273      14307.354    
    342000   0.96646344     0.0023323615   0.0026377344   20.274688      18.83949       1.4351982     -1.6460184      14040.105    
    343000   1.0120675      0.0023323615  -0.0013637878   20.71882       19.2159        1.5029203     -1.3950028      14213.51     
    344000   1.1214611      0.0023323615   0.0041849296   20.639108      18.973738      1.6653697     -1.5736972      14019.778    
    345000   0.89953234     0.0023323615  -0.0068719493   20.188046      18.85224       1.3358055     -1.6190464      13648.395    
    346000   0.96563362     0.0023323615  -0.0023564135   20.293562      18.859596      1.4339659     -1.704615       13734.918    
    347000   0.90782263     0.0023323615   0.00030657451  20.075565      18.727449      1.3481166     -1.7789033      13534.669    
    348000   0.91129321     0.0023323615   0.00063222294  20.133425      18.780154      1.3532704     -1.7057211      13720.701    
    349000   0.93708641     0.0023323615  -0.0017167466   20.091585      18.700012      1.3915733     -1.8207951      13573.548    
    350000   0.95425573     0.0023323615  -0.0024922985   20.099612      18.682542      1.4170698     -1.8817116      13264.882    
    351000   1.1003578      0.0023323615  -0.0034344671   20.091306      18.457275      1.6340314     -2.0027599      13383.138    
    352000   1.108365       0.0023323615  -0.0023386356   20.31993       18.674008      1.645922      -1.8076125      14033.391    
    353000   1.133295       0.0023323615   0.00023948566  20.205199      18.522256      1.6829431     -1.9421564      13591.867    
    354000   1.0862757      0.0023323615   0.0028588732   20.516157      18.903038      1.6131193     -1.7606008      14279.642    
    355000   0.91441543     0.0023323615   0.0019834147   19.924606      18.566699      1.3579069     -1.9500854      14293.045    
    356000   0.88787078     0.0023323615  -0.0020255946   20.11719       18.798702      1.3184881     -1.7226353      13829.185    
    357000   0.89385009     0.0023323615  -0.00027339602  19.778098      18.45073       1.3273674     -1.9767084      14026.039    
    358000   1.1025036      0.0023323615   0.00404312     20.365084      18.727866      1.6372179     -1.8125795      13908.505    
    359000   0.99100454     0.0023323615   0.0016901575   20.291611      18.819969      1.4716417     -1.7330753      13267.91     
    360000   1.0231261      0.0023323615   0.0027939786   20.305728      18.786385      1.5193423     -1.8215538      13100.007    
    361000   0.97564684     0.0023323615  -0.00036455513  20.265143      18.816307      1.4488356     -1.7141542      13077.697    
    362000   0.89868989     0.0023323615   0.002016212    20.160898      18.826344      1.3345545     -1.7736079      13543.718    
    363000   0.90269275     0.0023323615   0.0005317096   20.43611       19.095612      1.3404987     -1.4545135      13923.769    
    364000   1.1542168      0.0023323615   0.00099839979  20.754439      19.040427      1.714012      -1.4913005      13938.807    
    365000   1.0862347      0.0023323615   0.0046601384   20.40267       18.789612      1.6130585     -1.6294742      13433.976    
    366000   0.85908124     0.0023323615  -0.0019753986   20.033881      18.758145      1.2757356     -1.6322599      13250.175    
    367000   0.84911485     0.0023323615   0.0020515195   20.265807      19.004872      1.2609356     -1.6883032      13222.718    
    368000   0.95027567     0.0023323615   0.002207266    20.086763      18.675604      1.4111594     -1.7846149      13136.064    
    369000   1.072662       0.0023323615   3.8858548e-06  20.511905      18.919002      1.5929031     -1.7102283      13302.638    
    370000   0.95078729     0.0023323615   0.00056849695  20.43187       19.019951      1.4119191     -1.5729289      13191.041    
    371000   0.99657653     0.0023323615   0.0028238528   20.13359       18.653673      1.4799162     -1.7286202      13563.691    
    372000   1.0193271      0.0023323615  -0.00021368005  20.675247      19.161547      1.5137007     -1.374375       13546.124    
    373000   0.85842966     0.0023323615  -0.00021387882  20.531853      19.257085      1.274768      -1.240019       14147.518    
    374000   0.97078694     0.0023323615   0.00030580621  20.350146      18.908528      1.4416186     -1.612254       14045.166    
    375000   0.95412408     0.0023323615   0.0015432372   20.09023       18.673356      1.4168743     -1.8173218      13988.259    
    376000   1.1249509      0.0023323615   0.0031309625   20.50589       18.835338      1.6705521     -1.7280829      13883.901    
    377000   1.0045036      0.0023323615   0.00092139583  20.360475      18.868787      1.4916879     -1.5269905      13479.001    
    378000   0.93274019     0.0023323615   8.4007025e-06  20.158072      18.772953      1.3851192     -1.6734642      13361.211    
    379000   0.99850793     0.0023323615  -0.000776351    20.238605      18.755821      1.4827843     -1.6605416      13298.841    
    380000   1.049767       0.0023323615  -0.0024916552   20.59316       19.034256      1.558904      -1.5758729      13507.504    
    381000   0.92335531     0.0023323615  -0.00048217279  20.306671      18.935488      1.3711826     -1.5304142      13541.447    
    382000   1.0478627      0.0023323615  -0.0028610193   20.499773      18.943697      1.5560761     -1.6545421      14279.466    
    383000   1.0499486      0.0023323615   0.002375665    20.480535      18.921361      1.5591737     -1.5624941      13791.132    
    384000   0.97721473     0.0023323615   0.0010233993   20.494812      19.043648      1.4511639     -1.4379397      13503.294    
    385000   0.94689357     0.0023323615  -0.0015466777   20.289884      18.883747      1.406137      -1.6470926      13394.037    
    386000   0.95405729     0.0023323615   0.00063426651  20.486285      19.06951       1.4167751     -1.4415529      14062.176    
    387000   0.99391145     0.0023323615  -0.0010164902   20.431601      18.955643      1.4759585     -1.5811646      14174.104    
    388000   0.97554453     0.0023323615  -0.00069533944  20.262985      18.814302      1.4486836     -1.7318031      13836.151    
    389000   1.0573848      0.0023323615   0.0022855812   20.427134      18.856918      1.5702164     -1.5839586      14175.666    
    390000   1.0214267      0.0023323615   0.0031295872   20.266362      18.749543      1.5168186     -1.6348159      14148.392    
    391000   1.0460267      0.0023323615   0.0040900315   20.276196      18.722847      1.5533496     -1.6964146      13669.687    
    392000   0.96481391     0.0023323615   0.00079733578  20.225535      18.792787      1.4327487     -1.8753277      13545.567    
    393000   1.025157       0.0023323615  -0.0023202948   20.252931      18.730572      1.5223582     -1.6427964      13420.889    
    394000   1.0921321      0.0023323615   0.002426715    20.385462      18.763646      1.6218162     -1.8137721      13298.299    
    395000   0.96276425     0.0023323615  -0.0013719233   20.148606      18.718901      1.4297049     -1.7622542      13261.412    
    396000   1.0904285      0.0023323615  -0.0035103148   20.468188      18.848901      1.6192864     -1.7041178      13339.822    
    397000   0.849178       0.0023323615  -0.0032636431   20.218147      18.957118      1.2610293     -1.6567073      13387.907    
    398000   1.0330194      0.0023323615   0.0010225859   20.408058      18.874024      1.5340338     -1.8360333      13845.164    
    399000   0.92320921     0.0023323615  -0.0016177044   20.083308      18.712342      1.3709657     -1.8095892      13505.356    
    400000   1.016328       0.0023323615   0.001630016    20.538942      19.029695      1.5092471     -1.5414911      14008.592    
    401000   0.91881872     0.0023323615   0.0014785342   20.279391      18.914945      1.3644458     -1.7977249      13975.293    
    402000   0.87654946     0.0023323615  -0.001435044    20.114145      18.812469      1.301676      -1.6952655      13474.282    
    403000   1.0371355      0.0023323615   0.00082205396  20.33415       18.794003      1.5401462     -1.6274537      13868.312    
    404000   0.91675483     0.0023323615  -0.002139224    20.160446      18.799065      1.3613809     -1.6823712      13488.87     
    405000   0.96189019     0.0023323615  -0.00070065557  20.47641       19.048003      1.4284069     -1.5235572      13902.784    
    406000   1.0687667      0.0023323615  -0.00042026171  20.541455      18.954336      1.5871185     -1.5835424      13132.236    
    407000   1.0184452      0.0023323615   0.00048379254  20.061447      18.549056      1.5123912     -1.802349       13595.522    
    408000   0.99803564     0.0023323615   0.0015573119   20.405197      18.923114      1.4820829     -1.6260236      13456.564    
    409000   0.91925575     0.0023323615   0.0048132327   20.515285      19.150191      1.3650948     -1.5582612      13579.485    
    410000   1.0045046      0.0023323615   0.0050036175   20.332189      18.8405        1.4916893     -1.6417484      13353.153    
[...]
    861000   1.1331741      0.0023323615  -0.0035284441   20.702097      19.019334      1.6827635     -1.6363593      13392.321    
    862000   0.94745453     0.0023323615  -0.0017523627   20.288893      18.881923      1.40697       -1.7268777      13390.441    
    863000   0.98252278     0.0023323615  -0.004095486    20.322341      18.863294      1.4590463     -1.6453046      13408.513    
    864000   1.0702521      0.0023323615  -0.0010563059   20.598446      19.009121      1.5893243     -1.5889466      13447.486    
    865000   1.1205254      0.0023323615   0.0018755192   20.560977      18.896997      1.6639802     -1.6113338      13433.738    
    866000   1.0477881      0.0023323615   0.0020601656   20.456224      18.900259      1.5559653     -1.7578728      13488.513    
    867000   1.0944588      0.0023323615  -0.0044687872   20.436697      18.811425      1.6252714     -1.7367062      13371.131    
    868000   1.3062026      0.0023323615  -0.00092540675  20.736179      18.796468      1.9397109     -1.6984908      13396.825    
    869000   0.95140564     0.0023323615   0.00074237938  20.040921      18.628084      1.4128374     -1.7895581      13325.683    
    870000   1.0557832      0.0023323615  -0.00099858617  20.24858       18.680741      1.5678381     -1.6941394      13420.998    
    871000   1.0326425      0.0023323615   0.00030616983  20.408931      18.875457      1.5334741     -1.64796        13595.264    
    872000   1.0644176      0.0023323615  -0.0029092979   20.487447      18.906786      1.5806601     -1.605357       13561.105    
    873000   0.99117575     0.0023323615   0.0017836919   20.136119      18.664223      1.471896      -1.7020249      13594.511    
    874000   1.0182099      0.0023323615   0.0029206944   20.293034      18.780992      1.5120417     -1.6990741      13625.674    
    875000   1.0477387      0.0023323615   0.0028083161   20.691642      19.13575       1.555892      -1.3364997      13610.972    
    876000   1.0180489      0.0023323615  -8.3352621e-05  20.438827      18.927025      1.5118027     -1.4718984      13325.135    
    877000   1.0124476      0.0023323615  -0.00091790313  20.532527      19.029042      1.5034847     -1.4373724      13588.51     
    878000   1.0463474      0.0023323615   0.0015849981   20.401642      18.847816      1.553826      -1.6512252      13412.13     
    879000   0.89706475     0.0023323615   0.0027544243   20.387122      19.054981      1.3321412     -1.459643       13499.873    
    880000   1.0550852      0.0023323615  -0.00044740016  20.446197      18.879395      1.5668016     -1.5928622      13790.04     
    881000   0.9855391      0.0023323615   0.0021464626   20.467371      19.003846      1.4635256     -1.4867593      13746.724    
    882000   1.0204139      0.0023323615  -0.0015726007   20.470013      18.954699      1.5153146     -1.5451134      13584.035    
    883000   1.0131096      0.0023323615  -0.0010094162   20.554129      19.049661      1.5044678     -1.454553       13549.116    
    884000   0.90569689     0.0023323615   0.0031257105   20.260047      18.915087      1.3449599     -1.5857995      13536.717    
    885000   1.0409542      0.0023323615  -0.00083611329  20.400997      18.85518       1.545817      -1.6125214      13563.56     
    886000   1.0430725      0.0023323615   0.0015125437   20.624338      19.075375      1.5489626     -1.4688775      13436.981    
    887000   1.0080131      0.0023323615  -0.0017836849   20.67016       19.173261      1.4968995     -1.3540884      13349.226    
    888000   1.0980947      0.0023323615   0.00072623312  20.593632      18.962962      1.6306707     -1.4586772      13268.545    
    889000   1.1225169      0.0023323615   0.0036606852   20.891958      19.225021      1.6669377     -1.3905942      13353.005    
    890000   1.0292091      0.0023323615   0.00053742277  20.608771      19.080395      1.5283754     -1.5142034      13291.711    
    891000   1.0173305      0.0023323615   0.0025727918   20.42615       18.915414      1.5107358     -1.6909253      13341.668    
    892000   0.9993547      0.0023323615   0.004302296    20.65612       19.172078      1.4840417     -1.3704302      13348.251    
    893000   0.9194537      0.0023323615   0.0024411987   20.363097      18.997708      1.3653888     -1.5236036      13377.464    
    894000   1.0001293      0.0023323615   0.00056571562  20.343258      18.858066      1.485192      -1.7194074      13156.756    
    895000   0.84963355     0.0023323615   0.00059591057  20.149482      18.887776      1.2617058     -1.6825725      13259.562    
    896000   1.0587269      0.0023323615  -0.002066717    20.315382      18.743173      1.5722094     -1.7257171      13407.668    
    897000   0.94533532     0.0023323615   0.0041088839   20.056886      18.653063      1.4038229     -1.7977969      13380.742    
    898000   0.97355563     0.0023323615   0.00029267524  20.465488      19.019758      1.4457301     -1.5376865      13404.646    
    899000   1.2048944      0.0023323615  -0.0015534822   20.737618      18.94835       1.7892682     -1.5262076      13428.096    
    900000   1.0459891      0.0023323615  -0.00078001846  20.692345      19.139051      1.5532939     -1.459596       13474.897    
    901000   0.91832248     0.0023323615  -0.0046498118   20.225565      18.861856      1.3637089     -1.6553233      13386.991    
    902000   0.97272296     0.0023323615  -0.0012336379   20.334437      18.889944      1.4444936     -1.6946573      13180.621    
    903000   1.0837616      0.0023323615  -0.0038417382   20.385106      18.77572       1.609386      -1.839343       13366.06     
    904000   0.9708064      0.0023323615  -0.0060302812   20.505644      19.063996      1.4416475     -1.4758795      13330.659    
    905000   0.87156197     0.0023323615   0.0016902399   20.152859      18.858589      1.2942695     -1.7240407      13450.605    
    906000   1.1284414      0.0023323615  -0.00094390204  20.452356      18.77662       1.6757355     -1.6717261      13365.081    
    907000   1.0188179      0.0023323615  -6.6349516e-05  20.6554        19.142456      1.5129446     -1.3049689      13312.555    
    908000   0.87483591     0.0023323615  -0.0019540357   20.036956      18.737824      1.2991313     -1.7445217      13436.488    
    909000   0.92012819     0.0023323615   0.0016813882   20.129472      18.763081      1.3663904     -1.7803702      12357.906    
    910000   0.93475087     0.0023323615   0.0010252594   19.849612      18.461507      1.388105      -1.9554227      11482.077    
    911000   1.0668622      0.0023323615   0.00027553907  20.287404      18.703113      1.5842903     -1.6899331      13821.611    
    912000   0.84278731     0.0023323615   0.0023364019   20.072578      18.821039      1.2515392     -1.7029544      13750.33     
    913000   0.95371309     0.0023323615  -0.0012704742   20.275477      18.859213      1.4162639     -1.6705076      13650.667    
    914000   1.0446278      0.0023323615  -0.0019488155   20.555103      19.003831      1.5512723     -1.5982516      13628.637    
    915000   0.92125372     0.0023323615  -0.0026817058   20.132512      18.76445       1.3680618     -1.7197455      13572.383    
    916000   1.2421424      0.0023323615  -0.0040110402   20.473148      18.628566      1.8445814     -1.8594721      13586.921    
    917000   1.1550506      0.0023323615  -0.0011826051   20.607415      18.892165      1.7152501     -1.6317191      13570.748    
    918000   1.0646556      0.0023323615  -0.0030770573   20.367346      18.786332      1.5810136     -1.6761696      13582.529    
    919000   1.0996406      0.0023323615   0.0016170964   20.295064      18.662097      1.6329663     -1.8294634      13484.757    
    920000   0.99512458     0.0023323615  -0.0016604154   20.119384      18.641624      1.47776       -1.8003628      13551.065    
    921000   0.96024125     0.0023323615  -0.0024202226   20.005744      18.579786      1.4259583     -1.8141243      13888.289    
    922000   0.96764698     0.0023323615  -0.0013741088   20.009736      18.57278       1.4369558     -1.8563831      13844.561    
    923000   0.95208045     0.0023323615   0.00040264448  20.320581      18.906741      1.4138395     -1.6913964      13884.517    
    924000   1.0294715      0.0023323615  -0.0015063009   20.473346      18.94458       1.5287652     -1.618551       13876.732    
    925000   1.1294686      0.0023323615  -0.001452983    20.403074      18.725813      1.6772609     -1.751562       13818.039    
    926000   1.0570667      0.0023323615  -0.00045393029  20.390586      18.820842      1.569744      -1.817424       13828.524    
    927000   1.0851039      0.0023323615   0.0023140771   20.413903      18.802524      1.6113793     -1.7625366      13830.749    
    928000   1.1150727      0.0023323615   0.0068965281   20.348125      18.692242      1.6558829     -1.8327141      13874.689    
    929000   1.0071196      0.0023323615  -0.0040722437   20.325523      18.82995       1.4955726     -1.6698459      13823.047    
    930000   1.0713193      0.0023323615  -0.00093747711  20.224647      18.633738      1.5909091     -1.9123783      13812.155    
    931000   0.8965491      0.0023323615   0.00024752342  20.090323      18.758948      1.3313754     -1.7933437      13806.981    
    932000   0.92018411     0.0023323615  -0.0023219171   20.072186      18.705713      1.3664734     -1.7813335      13846.47     
    933000   1.0074534      0.0023323615   0.0028042636   20.205484      18.709415      1.4960682     -1.8233102      13820.631    
    934000   0.9676306      0.0023323615   0.00069526982  20.400774      18.963843      1.4369314     -1.5534956      13887.985    
    935000   1.0528272      0.0023323615  -0.0012477679   20.269493      18.706044      1.5634484     -1.8810115      13839.426    
    936000   0.9826028      0.0023323615   0.0024618962   20.280633      18.821468      1.4591652     -1.6817886      13733.939    
    937000   0.95445441     0.0023323615   6.7862445e-05  20.279359      18.861994      1.4173648     -1.5622951      13711.84     
    938000   0.91793913     0.0023323615   0.0013524208   20.216622      18.853483      1.3631396     -1.7425735      13749.189    
    939000   1.064061       0.0023323615   0.00095766382  19.859834      18.279703      1.5801306     -2.1563938      13820.314    
    940000   0.97484026     0.0023323615  -0.0033637907   20.087527      18.63989       1.4476378     -1.880414       13851.764    
    941000   1.0399785      0.0023323615   0.0017241007   20.65397       19.109602      1.544368      -1.476785       13767.181    
    942000   1.1879463      0.0023323615   0.0021684614   20.816114      19.052014      1.7641003     -1.5511797      13769.359    
    943000   1.0286398      0.0023323615  -0.00079014014  20.426961      18.899431      1.5275301     -1.6602611      13675.452    
    944000   0.9782337      0.0023323615   0.0012974462   20.364993      18.912316      1.452677      -1.6270707      13652.398    
    945000   0.92120471     0.0023323615   0.0021174518   19.950404      18.582415      1.367989      -1.9126769      13721.98     
    946000   1.136875       0.0023323615  -0.00027006388  20.347791      18.659532      1.6882594     -1.8755019      13687.103    
    947000   1.073534       0.0023323615  -0.0029240231   20.254906      18.660708      1.5941979     -1.7986302      13659.376    
    948000   1.0960582      0.0023323615  -0.00037573446  20.794035      19.166389      1.6276464     -1.4361747      13753.568    
    949000   0.9096992      0.0023323615  -0.0008223178   20.462964      19.112061      1.3509033     -1.4831503      13708.35     
    950000   0.89502672     0.0023323615  -0.00057482791  20.186033      18.856918      1.3291147     -1.6870447      13415.092    
    951000   0.90606707     0.0023323615  -0.0012494955   20.39951       19.054001      1.3455096     -1.5467827      13926.842    
    952000   1.0267551      0.0023323615  -0.0023440586   20.55592       19.031189      1.5247314     -1.498815       13924.524    
    953000   1.1059298      0.0023323615   0.0013704767   20.818254      19.175948      1.6423057     -1.4095761      13992.302    
    954000   1.0986149      0.0023323615  -0.0028534739   20.618305      18.986862      1.6314431     -1.4727017      13961.179    
    955000   1.1150481      0.0023323615   0.002747246    20.588326      18.93248       1.6558464     -1.5259211      13530.003    
    956000   1.0518672      0.0023323615  -0.0016742455   20.643329      19.081306      1.5620228     -1.5207852      13577.942    
    957000   0.97876793     0.0023323615  -0.0010692674   20.405575      18.952105      1.4534704     -1.5313235      13566.484    
    958000   0.91757202     0.0023323615  -0.00419777     20.593888      19.231294      1.3625945     -1.3328074      13701.757    
    959000   0.91838364     0.0023323615  -0.00077507311  20.389865      19.026065      1.3637997     -1.4859569      13710.286    
    960000   0.85994248     0.0023323615  -0.00014041482  20.319098      19.042083      1.2770146     -1.5697141      13618.68     
    961000   0.98617817     0.0023323615   0.0033393576   20.093482      18.629008      1.4644746     -1.8126141      13484.108    
    962000   1.0208961      0.0023323615   0.0036071846   20.654095      19.138064      1.5160307     -1.4318142      13525.689    
    963000   0.9476396      0.0023323615   8.0927776e-05  20.270135      18.86289       1.4072448     -1.6015615      13639.484    
    964000   1.0425956      0.0023323615   0.0024091392   20.278517      18.730262      1.5482545     -1.8475307      13850.058    
    965000   0.86805659     0.0023323615  -0.00084612195  20.030118      18.741054      1.289064      -1.6612045      13806.282    
    966000   0.90709856     0.0023323615  -0.0031106203   19.92266       18.575619      1.3470414     -1.9424877      13840.684    
    967000   1.0128507      0.0023323615  -0.00011856518  20.436352      18.932269      1.5040833     -1.5660377      13839.05     
    968000   0.9808075      0.0023323615   6.5635123e-05  20.506813      19.050314      1.4564991     -1.3965752      13921.974    
    969000   1.0692813      0.0023323615  -0.00033615511  20.706618      19.118735      1.5878827     -1.302183       13952.762    
    970000   1.0452844      0.0023323615   0.0019917419   20.47691       18.924662      1.5522474     -1.5708016      13905.848    
    971000   1.0616181      0.0023323615  -3.511641e-05   20.466971      18.890468      1.5765029     -1.6183598      13745.304    
    972000   1.089993       0.0023323615   0.00013528251  20.762234      19.143595      1.6186396     -1.3841057      13673.756    
    973000   1.0101051      0.0023323615   0.00014284266  20.477688      18.977682      1.5000061     -1.5114332      13708.23     
    974000   1.0573118      0.0023323615   0.0058320768   20.517156      18.947048      1.570108      -1.4567107      13695.592    
    975000   1.112382       0.0023323615   0.0026420744   20.729269      19.077382      1.6518873     -1.4303929      13716.017    
    976000   0.95444762     0.0023323615   0.0011922109   20.732979      19.315624      1.4173547     -1.3342526      13783.274    
    977000   0.90880882     0.0023323615   0.0013285763   20.451617      19.102036      1.3495811     -1.4409245      13658.237    
    978000   0.91951096     0.0023323615   0.0016730701   20.438897      19.073424      1.3654738     -1.4442865      13550.295    
    979000   1.0595855      0.0023323615  -0.0018845065   20.549877      18.976393      1.5734844     -1.6568418      13581.013    
    980000   0.90095948     0.0023323615  -2.461452e-05   20.377399      19.039474      1.3379248     -1.5305243      13670.678    
    981000   1.0374119      0.0023323615   0.0018859294   20.470424      18.929868      1.5405567     -1.663512       13596.959    
    982000   1.0465753      0.0023323615  -0.0027166617   20.835081      19.280917      1.5541643     -1.2218738      13603.85     
    983000   1.0000343      0.0023323615  -2.2074527e-05  20.620623      19.135572      1.485051      -1.4660631      13786.675    
    984000   0.95968264     0.0023323615   0.003603105    20.068512      18.643383      1.4251287     -1.7590686      13653.525    
    985000   0.99217146     0.0023323615  -0.00098817743  20.384115      18.910741      1.4733746     -1.5762978      13555.836    
    986000   1.0249546      0.0023323615   0.0005882768   20.562076      19.040019      1.5220576     -1.4878314      13439.052    
    987000   1.0827148      0.0023323615  -0.0015146907   20.15054       18.542708      1.6078314     -1.8890206      13592.852    
    988000   1.0867989      0.0023323615  -6.2063259e-05  20.673287      19.05939       1.6138963     -1.5414097      13668.721    
    989000   1.0636873      0.0023323615  -0.00077421434  20.271723      18.692148      1.5795756     -1.830183       13600.405    
    990000   1.1049952      0.0023323615  -0.00057993827  20.299534      18.658617      1.6409178     -1.9320162      13747.436    
    991000   1.0726086      0.0023323615  -0.0052849377   20.528135      18.935311      1.5928238     -1.6686073      13824.36     
    992000   1.0771887      0.0023323615   0.0032433333   20.277815      18.67819       1.5996251     -1.7886524      13732.632    
    993000   1.0154987      0.0023323615   0.0020393142   20.389817      18.881802      1.5080155     -1.6081872      13772.234    
    994000   1.09536        0.0023323615  -0.002317388    20.757432      19.130823      1.6266096     -1.448606       13655.184    
    995000   0.98960952     0.0023323615   0.00066495286  20.338838      18.869268      1.4695701     -1.6563166      13203.092    
    996000   0.96218084     0.0023323615   0.0005370312   20.012241      18.583403      1.4288385     -1.9512887      13575.933    
    997000   0.94246153     0.0023323615  -0.0055670324   20.111789      18.712234      1.3995554     -1.7576327      13608.037    
    998000   0.91334147     0.0023323615  -0.0014583453   20.164161      18.807849      1.3563121     -1.7553982      13642.198    
    999000   0.90363716     0.0023323615  -0.004068751    20.25461       18.912709      1.3419012     -1.6661143      13539.613    
   1000000   1.1006981      0.0023323615   0.0018250935   20.173434      18.538897      1.6345367     -1.8954105      13591.425    
Loop time of 73.5218 on 1 procs for 1000000 steps with 100 atoms

Performance: 5875811.519 tau/day, 13601.416 timesteps/s
99.8% CPU use with 1 MPI tasks x 1 OpenMP threads

MPI task timing breakdown:
Section |  min time  |  avg time  |  max time  |%varavg| %total
---------------------------------------------------------------
Pair    | 60.116     | 60.116     | 60.116     |   0.0 | 81.77
Bond    | 1.466      | 1.466      | 1.466      |   0.0 |  1.99
Neigh   | 5.1156     | 5.1156     | 5.1156     |   0.0 |  6.96
Comm    | 3.1413     | 3.1413     | 3.1413     |   0.0 |  4.27
Output  | 0.28355    | 0.28355    | 0.28355    |   0.0 |  0.39
Modify  | 2.9837     | 2.9837     | 2.9837     |   0.0 |  4.06
Other   |            | 0.416      |            |       |  0.57

Nlocal:            100 ave         100 max         100 min
Histogram: 1 0 0 0 0 0 0 0 0 0
Nghost:            292 ave         292 max         292 min
Histogram: 1 0 0 0 0 0 0 0 0 0
Neighs:           4851 ave        4851 max        4851 min
Histogram: 1 0 0 0 0 0 0 0 0 0

Total # of neighbors = 4851
Ave neighs/atom = 48.51
Ave special neighs/atom = 1.98
Neighbor list builds = 97876
Dangerous builds = 79938

write_data      ${outputfile_assembled} nofix nocoeff
write_data      7_assembled.data nofix nocoeff
System init for write_data ...
Generated 0 of 6 mixed pair_coeff terms from geometric mixing rule

Total wall time: 0:01:15
