LAMMPS (23 Jun 2022 - Update 1)
OMP_NUM_THREADS environment is not set. Defaulting to 1 thread. (src/comm.cpp:98)
  using 1 OpenMP thread(s) per MPI task


variable        runtime equal 1000000
variable		subsample_rate equal 1000

variable		outputfile_created string '3_created.data'
variable		outputfile_relaxed string '5_relaxed.data'
variable		outputfile_selfasb string '6_a_self_assemble.lammpstrj'
variable		outputfile_trajlin string '6_b_trajlin.data'
variable		outputfile_assembled string '7_assembled.data'

units           lj
atom_style      full
dimension       3
boundary        p p p
timestep        0.005

read_data       ${outputfile_created}
read_data       3_created.data
Reading data file ...
  orthogonal box = (0 0 0) to (35 35 35)
  1 by 1 by 1 MPI processor grid
  reading atoms ...
  100 atoms
  reading velocities ...
  100 velocities
  scanning bonds ...
  1 = max bonds/atom
  reading bonds ...
  99 bonds
Finding 1-2 1-3 1-4 neighbors ...
  special bond factors lj:    0        0        0       
  special bond factors coul:  0        0        0       
     2 = max # of 1-2 neighbors
     2 = max # of 1-3 neighbors
     4 = max # of 1-4 neighbors
     6 = max # of special neighbors
  special bonds CPU = 0.000 seconds
  read_data CPU = 0.006 seconds

bond_style      fene
bond_coeff      * 30.0 1.5 1.0 1.0
special_bonds   fene
Finding 1-2 1-3 1-4 neighbors ...
  special bond factors lj:    0        1        1       
  special bond factors coul:  0        1        1       
     2 = max # of 1-2 neighbors
     6 = max # of special neighbors
  special bonds CPU = 0.000 seconds

variable        Temp equal 1.0
variable        velSeed equal 926458

velocity        all create ${Temp} ${velSeed}
velocity        all create 1 ${velSeed}
velocity        all create 1 926458

### Output
thermo_style    custom step temp density press etotal pe ke epair spcpu
thermo          1000

###########################################################################
# Soft relaxation (to remove overlaps of particles)
######################################################################

pair_style      soft 1.0
pair_coeff      * * 0.0
variable        prefactor equal ramp(0,300)
fix             rampSoft all adapt 1 pair soft a * * v_prefactor

minimize        0.0 1.0e-8 1000 100000
WARNING: Using 'neigh_modify every 1 delay 0 check yes' setting during minimization (src/min.cpp:187)
Generated 0 of 6 mixed pair_coeff terms from geometric mixing rule
Neighbor list info ...
  update every 1 steps, delay 0 steps, check yes
  max neighbors/atom: 2000, page size: 100000
  master list distance cutoff = 1.3
  ghost atom cutoff = 1.3
  binsize = 0.65, bins = 54 54 54
  1 neighbor lists, perpetual/occasional/extra = 1 0 0
  (1) pair soft, perpetual
      attributes: half, newton on
      pair build: half/bin/newton
      stencil: half/bin/3d
      bin: standard
WARNING: Communication cutoff 1.3 is shorter than a bond length based estimate of 1.7550000000000001. This may lead to errors. (src/comm.cpp:727)
Per MPI rank memory allocation (min/avg/max) = 8.346 | 8.346 | 8.346 Mbytes
   Step          Temp         Density         Press          TotEng         PotEng         KinEng         E_pair         S/CPU     
         0   1              0.0023323615  -0.0039617958   21.524174      20.039174      1.485          0              0            
       362   1              0.0023323615   0.0023090379   21.485548      20.000548      1.485          0              69006.495    
Loop time of 0.00524803 on 1 procs for 362 steps with 100 atoms

99.4% CPU use with 1 MPI tasks x 1 OpenMP threads

Minimization stats:
  Stopping criterion = force tolerance
  Energy initial, next-to-last, final = 
      20.0391741078675   20.0005480767337   20.0005480767337
  Force two-norm initial, final = 11.878422 7.9509778e-09
  Force max component initial, final = 6.6117807 1.3572772e-09
  Final line search alpha, max atom move = 1 1.3572772e-09
  Iterations, force evaluations = 362 738

MPI task timing breakdown:
Section |  min time  |  avg time  |  max time  |%varavg| %total
---------------------------------------------------------------
Pair    | 0.00021343 | 0.00021343 | 0.00021343 |   0.0 |  4.07
Bond    | 0.002331   | 0.002331   | 0.002331   |   0.0 | 44.42
Neigh   | 0.0015179  | 0.0015179  | 0.0015179  |   0.0 | 28.92
Comm    | 0.00019976 | 0.00019976 | 0.00019976 |   0.0 |  3.81
Output  | 0          | 0          | 0          |   0.0 |  0.00
Modify  | 0          | 0          | 0          |   0.0 |  0.00
Other   |            | 0.0009859  |            |       | 18.79

Nlocal:            100 ave         100 max         100 min
Histogram: 1 0 0 0 0 0 0 0 0 0
Nghost:             20 ave          20 max          20 min
Histogram: 1 0 0 0 0 0 0 0 0 0
Neighs:              0 ave           0 max           0 min
Histogram: 1 0 0 0 0 0 0 0 0 0

Total # of neighbors = 0
Ave neighs/atom = 0
Ave special neighs/atom = 1.98
Neighbor list builds = 17
Dangerous builds = 0

fix             nvtSoft all nvt temp ${Temp} ${Temp} 0.5
fix             nvtSoft all nvt temp 1 ${Temp} 0.5
fix             nvtSoft all nvt temp 1 1 0.5
run             100000
Generated 0 of 6 mixed pair_coeff terms from geometric mixing rule
WARNING: Communication cutoff 1.3 is shorter than a bond length based estimate of 1.7550000000000001. This may lead to errors. (src/comm.cpp:727)
Per MPI rank memory allocation (min/avg/max) = 7.221 | 7.221 | 7.221 Mbytes
   Step          Temp         Density         Press          TotEng         PotEng         KinEng         E_pair         S/CPU     
       362   1              0.0023323615   0.0023090379   21.485548      20.000548      1.485          0              0            
      1000   0.90989032     0.0023323615  -0.0021940042   21.776974      20.425787      1.3511871      0.00036425437  78689.395    
      2000   0.86546688     0.0023323615   0.0034714157   21.677128      20.39191       1.2852183      0.0025814786   78105.407    
      3000   0.98199538     0.0023323615   0.0028144228   21.866132      20.407869      1.4582631      0.0011756043   74619.187    
      4000   1.004495       0.0023323615  -0.0014058211   21.945624      20.453949      1.4916751      0.011986179    74853.095    
      5000   1.1222705      0.0023323615   0.0044495116   21.986385      20.319813      1.6665718      0.0050317639   75085.932    
      6000   1.0538243      0.0023323615   0.0023957538   21.985713      20.420784      1.564929       0.012100514    75795.933    
      7000   1.0210598      0.0023323615  -0.00038820026  21.904665      20.388391      1.5162738      0              77544.122    
      8000   0.94819751     0.0023323615   0.0024943091   21.747889      20.339816      1.4080733      0              77429.286    
      9000   0.92364502     0.0023323615   0.0020053029   21.724166      20.352554      1.3716129      1.7780894e-05  76119.866    
     10000   0.86685188     0.0023323615   0.00078277366  21.644879      20.357604      1.287275       0.0098636418   75980.619    
     11000   1.0057103      0.0023323615   0.00010113276  21.8558        20.362321      1.4934798      0.020705341    76433.818    
     12000   0.97901664     0.0023323615  -0.0026996968   21.871206      20.417366      1.4538397      0.0052928539   76419.537    
     13000   0.97718436     0.0023323615  -6.1641422e-06  21.963706      20.512587      1.4511188      0.025022446    75072.55     
     14000   1.0530014      0.0023323615  -0.0009993112   21.947994      20.384287      1.5637071      0.0020860456   74793.023    
     15000   0.99094527     0.0023323615   0.0011068478   21.895146      20.423592      1.4715537      0.0015091113   75737.609    
     16000   0.91285091     0.0023323615  -0.00025424173  21.87524       20.519657      1.3555836      0.0047853639   75727.153    
     17000   0.82806978     0.0023323615  -0.00054698156  21.701984      20.472301      1.2296836      0              75959.519    
     18000   1.043278       0.0023323615  -6.6143919e-05  22.003299      20.454031      1.5492679      0.0034319132   76421.412    
     19000   1.0879249      0.0023323615  -0.0017804642   21.998985      20.383416      1.6155685      0.015376175    74385.341    
     20000   1.1144506      0.0023323615   0.0025198298   22.190904      20.535944      1.6549592      0              75651.337    
     21000   1.0427751      0.0023323615   0.0011345349   22.099492      20.550971      1.548521       0.00040047813  74263.749    
     22000   1.0586695      0.0023323615   0.0017882747   22.05673       20.484606      1.5721242      0              74525.75     
     23000   1.0058426      0.0023323615  -0.0055245362   21.954628      20.460951      1.4936763      0.0027619031   72369.745    
     24000   0.98273442     0.0023323615   0.0015147357   21.862067      20.402707      1.4593606      0              75629.956    
     25000   0.95835343     0.0023323615   0.0017808774   21.937761      20.514606      1.4231548      0.00020839942  75529.739    
     26000   0.93993778     0.0023323615  -0.0021777292   21.884849      20.489042      1.3958076      0.0088889834   76121.204    
     27000   0.9308188      0.0023323615  -0.00011239942  21.842252      20.459986      1.3822659      0.021612409    75305.622    
     28000   1.0149581      0.0023323615   0.0041996387   21.906846      20.399633      1.5072129      0.0064059022   75902.043    
     29000   0.92841138     0.0023323615  -2.5398808e-05  21.987185      20.608494      1.3786909      0.0046112484   75730.944    
     30000   1.021043       0.0023323615   0.001589158    22.097958      20.581709      1.5162489      0.016799508    72933.295    
     31000   1.0465985      0.0023323615  -0.0021744286   22.037917      20.483718      1.5541987      0.0057879149   75530.372    
     32000   0.98907108     0.0023323615  -0.0015558606   22.044089      20.575318      1.4687705      0.009448173    74961.816    
     33000   1.0918536      0.0023323615  -0.0025643847   22.039275      20.417873      1.6214025      0              74447.652    
     34000   0.99801543     0.0023323615   0.0016279766   21.932339      20.450286      1.4820529      0.017384617    77007.53     
     35000   1.0352271      0.0023323615  -0.0052971711   22.076004      20.538692      1.5373122      0.00010473809  75356.281    
     36000   1.1141579      0.0023323615  -0.00093279925  22.222491      20.567966      1.6545245      0.00033678641  76433.701    
     37000   1.0369415      0.0023323615   0.00013065175  22.217841      20.677983      1.5398581      0.013788831    74938.459    
     38000   1.0515596      0.0023323615   0.0021717558   22.070766      20.5092        1.561566       0.0067894678   76038.041    
     39000   1.0238495      0.0023323615   0.00026414509  22.040141      20.519725      1.5204165      0.00044464649  75095.146    
     40000   1.0749111      0.0023323615  -0.0026849368   22.039327      20.443084      1.596243       0.012651334    73855.413    
     41000   0.99070886     0.0023323615  -0.0030385564   22.03241       20.561207      1.4712027      0.00092855646  77008.96     
     42000   0.95315224     0.0023323615   0.0019788197   21.965263      20.549832      1.4154311      0.020233689    75591.806    
     43000   1.0644183      0.0023323615  -0.0011168725   22.287172      20.706511      1.5806611      0.039694129    75550.955    
     44000   1.0253747      0.0023323615  -0.006676522    22.066233      20.543552      1.5226814      0              74792.235    
     45000   0.94179556     0.0023323615  -0.0047206018   21.970644      20.572077      1.3985664      0.019869988    75140.936    
     46000   1.0083495      0.0023323615  -0.0017646918   21.972114      20.474715      1.497399       0.00026040605  75376.365    
     47000   0.98767959     0.0023323615  -0.00080218158  22.091674      20.62497       1.4667042      0.024266258    75216.694    
     48000   1.1473449      0.0023323615  -0.0025885687   22.080512      20.376705      1.7038072      0.00065962995  75472.518    
     49000   1.0679312      0.0023323615   0.0017688272   21.970482      20.384604      1.5858779      0.014142422    76519.191    
     50000   0.9581935      0.0023323615   0.0014398836   21.955202      20.532284      1.4229173      0.0055011948   76099.846    
     51000   1.0215759      0.0023323615  -0.00093292688  21.934681      20.41764       1.5170402      0              75426.26     
     52000   0.98079591     0.0023323615   0.0040701936   21.977374      20.520892      1.4564819      0.0020862422   75769.176    
     53000   1.0090927      0.0023323615   0.0013324753   22.095438      20.596935      1.4985027      0              74368.994    
     54000   0.97519627     0.0023323615   0.0013260734   22.070151      20.621984      1.4481665      0.026885444    76562.098    
     55000   1.1805087      0.0023323615  -0.001586238    22.424088      20.671033      1.7530554      0.024690954    76113.649    
     56000   0.98387121     0.0023323615   0.0037155145   22.104425      20.643376      1.4610487      0.01435493     75044.781    
     57000   1.0723812      0.0023323615  -0.0037916262   22.122726      20.53024       1.592486       0.013635549    76274.241    
     58000   1.0152349      0.0023323615   0.00021908047  22.082827      20.575203      1.5076238      0.00077375639  76075.253    
     59000   1.1424502      0.0023323615  -0.0052108657   22.30072       20.604182      1.6965385      0.013308184    76805.706    
     60000   1.0359703      0.0023323615  -0.00097887545  22.188218      20.649802      1.538416       0.00011346294  75524.138    
     61000   1.1646839      0.0023323615  -0.002085017    22.239945      20.51039       1.7295556      0.012918477    75791.044    
     62000   1.101836       0.0023323615   0.0010338878   22.171386      20.53516       1.6362265      0.001396566    76297.502    
     63000   0.96616435     0.0023323615   0.00097550571  21.903821      20.469067      1.4347541      0.013027663    77851.134    
     64000   1.0068907      0.0023323615  -0.0020278726   22.061652      20.566419      1.4952327      0.013750276    76320.666    
     65000   0.98723233     0.0023323615   0.0022441476   22.031073      20.565033      1.46604        0.0066686189   76278.849    
     66000   1.0273881      0.0023323615  -0.0003515278   22.183579      20.657908      1.5256713      0              74661.327    
     67000   0.96528212     0.0023323615  -0.00014822656  21.9396        20.506156      1.4334439      0.010365557    76751.366    
     68000   1.069702       0.0023323615   9.4754668e-05  22.081119      20.492611      1.5885075      0.00049153926  73967.014    
     69000   1.1229502      0.0023323615   0.0011504079   22.200329      20.532748      1.6675811      0.0068454249   76800.975    
     70000   1.0062775      0.0023323615  -0.00085311964  22.094021      20.599699      1.4943221      0.013222355    75309.83     
     71000   1.0906935      0.0023323615   0.00015260357  22.145362      20.525682      1.6196798      0.018338513    75876.478    
     72000   1.010401       0.0023323615  -6.0487182e-06  22.154105      20.653659      1.5004455      0.0013793953   74924.287    
     73000   1.1177599      0.0023323615  -0.0034084797   22.254435      20.594562      1.6598735      0.00011231735  77410.309    
     74000   0.9768019      0.0023323615   0.00016143893  22.07312       20.622569      1.4505508      0.0084515956   75555.305    
     75000   1.1360996      0.0023323615   0.002159116    22.161595      20.474487      1.6871079      0.0089909162   76245.512    
     76000   0.97379329     0.0023323615  -0.00068458621  21.988928      20.542845      1.446083       0              75058.835    
     77000   0.94876793     0.0023323615  -0.0016073976   21.923496      20.514575      1.4089204      0.017745108    75693.214    
     78000   0.83947996     0.0023323615  -0.00062768559  21.726727      20.480099      1.2466277      0.0054510099   76223.858    
     79000   1.0090614      0.0023323615  -0.00080262643  22.068192      20.569736      1.4984562      0.00023011166  76964.964    
     80000   1.1217643      0.0023323615  -0.0038177864   22.367902      20.702082      1.66582        0.032902439    76231.191    
     81000   1.0240158      0.0023323615   0.00023547123  22.031597      20.510933      1.5206635      0.0068767308   75678.291    
     82000   1.003236       0.0023323615  -0.0022802982   21.894199      20.404393      1.4898055      0.019136282    74566.117    
     83000   1.0554159      0.0023323615   0.004011718    22.104562      20.537269      1.5672927      0.0080869707   74291.335    
     84000   0.83527346     0.0023323615  -0.0034122221   21.874648      20.634267      1.2403811      0.0030083664   75600.624    
     85000   1.036002       0.0023323615   0.0013573923   21.962923      20.42446       1.5384629      0.015709144    76056.871    
     86000   0.9432002      0.0023323615  -0.0032183248   21.913588      20.512936      1.4006523      0.013730309    75716.07     
     87000   0.95566008     0.0023323615  -0.00049614223  21.91653       20.497375      1.4191552      0.0035862035   75173.246    
     88000   0.93373351     0.0023323615  -0.00097093893  21.870485      20.483891      1.3865943      0.0018212145   75034.116    
     89000   0.9684944      0.0023323615  -0.00047342045  21.973429      20.535215      1.4382142      0.00087524744  75380.349    
     90000   0.98293324     0.0023323615  -0.0032204602   22.050919      20.591263      1.4596559      0.015353933    76437.738    
     91000   1.0832827      0.0023323615   0.0048517083   22.11977       20.511095      1.6086749      0.0052867789   77585.652    
     92000   0.85899662     0.0023323615  -0.0013049519   21.765697      20.490087      1.27561        0.0024124001   76403.918    
     93000   0.96176266     0.0023323615  -4.4223672e-05  21.874222      20.446004      1.4282176      0.0045653365   77256.271    
     94000   0.96019503     0.0023323615   0.00024459347  21.944954      20.519064      1.4258896      3.8053462e-05  76603.106    
     95000   0.94702149     0.0023323615  -0.0033658915   21.86315       20.456823      1.4063269      0              77241.442    
     96000   0.91119348     0.0023323615  -0.0013197298   21.825018      20.471896      1.3531223      0.00043282989  75844.653    
     97000   1.0016687      0.0023323615  -0.0019514304   22.013024      20.525546      1.487478       0.0048369955   75289.265    
     98000   1.02143        0.0023323615  -0.0057874974   22.177965      20.661142      1.5168235      0              74248.999    
     99000   1.032786       0.0023323615   0.0018228259   21.975336      20.441649      1.5336871      7.1595851e-05  76947.694    
    100000   1.0594928      0.0023323615   0.0036169719   22.011024      20.437677      1.5733468      0.00032948157  75743.649    
    100362   1.1904942      0.0023323615  -0.00089755607  22.316856      20.548972      1.7678839      0.00063845255  75153.301    
Loop time of 1.32062 on 1 procs for 100000 steps with 100 atoms

Performance: 32711841.387 tau/day, 75721.855 timesteps/s
99.3% CPU use with 1 MPI tasks x 1 OpenMP threads

MPI task timing breakdown:
Section |  min time  |  avg time  |  max time  |%varavg| %total
---------------------------------------------------------------
Pair    | 0.049654   | 0.049654   | 0.049654   |   0.0 |  3.76
Bond    | 0.12619    | 0.12619    | 0.12619    |   0.0 |  9.56
Neigh   | 0.80601    | 0.80601    | 0.80601    |   0.0 | 61.03
Comm    | 0.055302   | 0.055302   | 0.055302   |   0.0 |  4.19
Output  | 0.0011698  | 0.0011698  | 0.0011698  |   0.0 |  0.09
Modify  | 0.24887    | 0.24887    | 0.24887    |   0.0 | 18.85
Other   |            | 0.03343    |            |       |  2.53

Nlocal:            100 ave         100 max         100 min
Histogram: 1 0 0 0 0 0 0 0 0 0
Nghost:             60 ave          60 max          60 min
Histogram: 1 0 0 0 0 0 0 0 0 0
Neighs:             36 ave          36 max          36 min
Histogram: 1 0 0 0 0 0 0 0 0 0

Total # of neighbors = 36
Ave neighs/atom = 0.36
Ave special neighs/atom = 1.98
Neighbor list builds = 9821
Dangerous builds = 8265
unfix           nvtSoft
unfix           rampSoft
reset_timestep  0

write_data      ${outputfile_relaxed}
write_data      5_relaxed.data
System init for write_data ...
Generated 0 of 6 mixed pair_coeff terms from geometric mixing rule
WARNING: Communication cutoff 1.3 is shorter than a bond length based estimate of 1.7550000000000001. This may lead to errors. (src/comm.cpp:727)
WARNING: Not all mixed pair coeffs generated from mixing. Use write_data with 'pair ij' option to store all pair coeffs. (src/write_data.cpp:309)

###########################################################################
# Full LJ with Coulomb
######################################################################

# Cutoffs and parameters:
# - Values: Marcel Verkade's Bachelor Thesis
# - Mapping to atom groups: Patrick Onck's paper
# - 1: aliphatic, 2: aromatic, 3: anion, 4: cation
# pair_style	lj/cut/coul/cut <lj_cut_global> <coul_cut_global>
# pair_coeff	<type_1>  <type_2>  <eps>  <sigma>  <r_cut_lj>  <r_cut_coul>

# Problem: Onck's model is much more complex, and Marcel has no sigma reported
# Using sigma=1 randomly

variable		glob_ljeps equal 1.0
variable		glob_ljsig 	equal 1.0
variable		glob_coulcut equal 10.0
variable		att_ljcut equal 2.50
variable		rep_ljcut equal 1.12

pair_style		lj/cut/coul/cut 						${att_ljcut} 	${glob_coulcut}
pair_style		lj/cut/coul/cut 						2.5 	${glob_coulcut}
pair_style		lj/cut/coul/cut 						2.5 	10
pair_coeff		1 1 	${glob_ljeps} 	${glob_ljsig}	${att_ljcut} 	${glob_coulcut}
pair_coeff		1 1 	1 	${glob_ljsig}	${att_ljcut} 	${glob_coulcut}
pair_coeff		1 1 	1 	1	${att_ljcut} 	${glob_coulcut}
pair_coeff		1 1 	1 	1	2.5 	${glob_coulcut}
pair_coeff		1 1 	1 	1	2.5 	10
pair_coeff		1 2 	${glob_ljeps} 	${glob_ljsig}	${att_ljcut} 	${glob_coulcut}
pair_coeff		1 2 	1 	${glob_ljsig}	${att_ljcut} 	${glob_coulcut}
pair_coeff		1 2 	1 	1	${att_ljcut} 	${glob_coulcut}
pair_coeff		1 2 	1 	1	2.5 	${glob_coulcut}
pair_coeff		1 2 	1 	1	2.5 	10
pair_coeff		1 3 	${glob_ljeps} 	${glob_ljsig}	${rep_ljcut} 	${glob_coulcut}
pair_coeff		1 3 	1 	${glob_ljsig}	${rep_ljcut} 	${glob_coulcut}
pair_coeff		1 3 	1 	1	${rep_ljcut} 	${glob_coulcut}
pair_coeff		1 3 	1 	1	1.12 	${glob_coulcut}
pair_coeff		1 3 	1 	1	1.12 	10
pair_coeff		1 4 	${glob_ljeps} 	${glob_ljsig}	${rep_ljcut} 	${glob_coulcut}
pair_coeff		1 4 	1 	${glob_ljsig}	${rep_ljcut} 	${glob_coulcut}
pair_coeff		1 4 	1 	1	${rep_ljcut} 	${glob_coulcut}
pair_coeff		1 4 	1 	1	1.12 	${glob_coulcut}
pair_coeff		1 4 	1 	1	1.12 	10
pair_coeff		2 2 	${glob_ljeps} 	${glob_ljsig}	${att_ljcut} 	${glob_coulcut}
pair_coeff		2 2 	1 	${glob_ljsig}	${att_ljcut} 	${glob_coulcut}
pair_coeff		2 2 	1 	1	${att_ljcut} 	${glob_coulcut}
pair_coeff		2 2 	1 	1	2.5 	${glob_coulcut}
pair_coeff		2 2 	1 	1	2.5 	10
pair_coeff		2 3 	${glob_ljeps} 	${glob_ljsig}	${rep_ljcut} 	${glob_coulcut}
pair_coeff		2 3 	1 	${glob_ljsig}	${rep_ljcut} 	${glob_coulcut}
pair_coeff		2 3 	1 	1	${rep_ljcut} 	${glob_coulcut}
pair_coeff		2 3 	1 	1	1.12 	${glob_coulcut}
pair_coeff		2 3 	1 	1	1.12 	10
pair_coeff		2 4 	${glob_ljeps} 	${glob_ljsig}	${att_ljcut} 	${glob_coulcut}
pair_coeff		2 4 	1 	${glob_ljsig}	${att_ljcut} 	${glob_coulcut}
pair_coeff		2 4 	1 	1	${att_ljcut} 	${glob_coulcut}
pair_coeff		2 4 	1 	1	2.5 	${glob_coulcut}
pair_coeff		2 4 	1 	1	2.5 	10
pair_coeff		3 3 	${glob_ljeps} 	${glob_ljsig}	${rep_ljcut} 	${glob_coulcut}
pair_coeff		3 3 	1 	${glob_ljsig}	${rep_ljcut} 	${glob_coulcut}
pair_coeff		3 3 	1 	1	${rep_ljcut} 	${glob_coulcut}
pair_coeff		3 3 	1 	1	1.12 	${glob_coulcut}
pair_coeff		3 3 	1 	1	1.12 	10
pair_coeff		3 4 	${glob_ljeps} 	${glob_ljsig}	${att_ljcut} 	${glob_coulcut}
pair_coeff		3 4 	1 	${glob_ljsig}	${att_ljcut} 	${glob_coulcut}
pair_coeff		3 4 	1 	1	${att_ljcut} 	${glob_coulcut}
pair_coeff		3 4 	1 	1	2.5 	${glob_coulcut}
pair_coeff		3 4 	1 	1	2.5 	10
pair_coeff		4 4 	${glob_ljeps} 	${glob_ljsig}	${rep_ljcut} 	${glob_coulcut}
pair_coeff		4 4 	1 	${glob_ljsig}	${rep_ljcut} 	${glob_coulcut}
pair_coeff		4 4 	1 	1	${rep_ljcut} 	${glob_coulcut}
pair_coeff		4 4 	1 	1	1.12 	${glob_coulcut}
pair_coeff		4 4 	1 	1	1.12 	10


fix             noDriftRot 	all momentum 10 linear 1 1 1 angular
fix             nvt1 		all nvt temp ${Temp} ${Temp} 0.5
fix             nvt1 		all nvt temp 1 ${Temp} 0.5
fix             nvt1 		all nvt temp 1 1 0.5

# dump          assemble 	all custom 1000 				${outputfile_selfasb} id type xu yu zu vx vy vz
dump            lindump 	all custom ${subsample_rate} 	${outputfile_trajlin} id type xu yu zu vx vy vz
dump            lindump 	all custom 1000 	${outputfile_trajlin} id type xu yu zu vx vy vz
dump            lindump 	all custom 1000 	6_b_trajlin.data id type xu yu zu vx vy vz

run             ${runtime}
run             1000000
Generated 0 of 6 mixed pair_coeff terms from geometric mixing rule
Neighbor list info ...
  update every 1 steps, delay 10 steps, check yes
  max neighbors/atom: 2000, page size: 100000
  master list distance cutoff = 10.3
  ghost atom cutoff = 10.3
  binsize = 5.15, bins = 7 7 7
  1 neighbor lists, perpetual/occasional/extra = 1 0 0
  (1) pair lj/cut/coul/cut, perpetual
      attributes: half, newton on
      pair build: half/bin/newton
      stencil: half/bin/3d
      bin: standard
Per MPI rank memory allocation (min/avg/max) = 7.712 | 7.712 | 7.712 Mbytes
   Step          Temp         Density         Press          TotEng         PotEng         KinEng         E_pair         S/CPU     
         0   1.1904942      0.0023323615  -0.001408845    22.01445       20.246566      1.7678839     -0.30176831     0            
      1000   1.0129515      0.0023323615  -0.0017286161   21.312886      19.808653      1.504233      -0.67974451     32579.372    
      2000   1.158301       0.0023323615  -0.0010449195   21.470201      19.750124      1.720077      -0.72118805     29583.143    
      3000   1.0488869      0.0023323615   0.0031076839   21.179126      19.621529      1.557597      -0.93721997     23601.51     
      4000   1.0318835      0.0023323615   0.0041754784   20.799023      19.266676      1.532347      -1.1811564      18664.263    
      5000   0.9910157      0.0023323615   0.0019473284   20.465945      18.994287      1.4716583     -1.5448542      17899.883    
      6000   0.86146742     0.0023323615  -0.0010295191   20.188556      18.909277      1.2792791     -1.6047099      18213.464    
      7000   0.96252557     0.0023323615  -0.00070766859  20.563681      19.134331      1.4293505     -1.4500001      18347.706    
      8000   1.055604       0.0023323615   0.0023356346   20.517374      18.949802      1.5675719     -1.5984534      18443.672    
      9000   1.0046677      0.0023323615  -0.0028068823   20.704793      19.212861      1.4919316     -1.4194844      18360.342    
     10000   0.92851715     0.0023323615   0.00078578855  20.222529      18.843681      1.378848      -1.6008362      18234.669    
     11000   1.1021851      0.0023323615  -0.0010740714   20.474637      18.837892      1.6367448     -1.7033954      18226.551    
     12000   1.0040416      0.0023323615   0.00065603292  20.403332      18.91233       1.4910018     -1.6231706      18398.151    
     13000   0.90246147     0.0023323615  -0.00071747985  20.126035      18.785879      1.3401553     -1.6316383      18222.379    
     14000   0.96026813     0.0023323615  -0.0031584101   20.513767      19.087769      1.4259982     -1.46567        18335.932    
     15000   1.0227736      0.0023323615   0.0021904347   20.46282       18.944001      1.5188188     -1.6633505      18270.742    
     16000   0.98513358     0.0023323615   0.0020930474   20.707923      19.245         1.4629234     -1.3587438      18292.121    
     17000   0.85286991     0.0023323615  -0.0019733505   20.004052      18.737541      1.2665118     -1.7391354      18189.748    
     18000   1.0260065      0.0023323615  -0.0010856623   20.471244      18.947624      1.5236196     -1.6699404      18126.532    
     19000   1.1787592      0.0023323615  -0.002571809    20.638653      18.888196      1.7504574     -1.5499268      18224.305    
     20000   0.9513312      0.0023323615  -0.00035456366  20.181075      18.768348      1.4127268     -1.7222492      18018.15     
     21000   0.91258205     0.0023323615  -0.0019637841   20.28742       18.932236      1.3551843     -1.5934797      18083.848    
     22000   0.85662382     0.0023323615  -0.003733615    20.257257      18.985171      1.2720864     -1.6142782      18134.601    
     23000   0.98205274     0.0023323615  -0.0039435543   20.341026      18.882678      1.4583483     -1.6832279      18147.179    
     24000   1.0074144      0.0023323615   0.0033855797   20.238406      18.742395      1.4960103     -1.6836735      18146.671    
     25000   0.93485362     0.0023323615   0.0029624917   20.356361      18.968103      1.3882576     -1.6214848      18165.102    
     26000   1.0881413      0.0023323615   0.0018966587   20.306889      18.690999      1.6158899     -1.767183       18161.52     
     27000   1.0300939      0.0023323615  -0.0036615707   20.49612       18.966431      1.5296895     -1.6171381      18231.229    
     28000   0.92406371     0.0023323615  -0.0016336963   20.129255      18.757021      1.3722346     -1.7135434      18232.784    
     29000   0.99124124     0.0023323615  -0.00019518872  20.438489      18.966495      1.4719932     -1.5112623      18213.573    
     30000   0.88428172     0.0023323615   0.00035792891  20.071046      18.757888      1.3131584     -1.6439991      18267.277    
     31000   1.0775203      0.0023323615   0.0017874335   20.589159      18.989041      1.6001177     -1.4479335      18155.293    
     32000   0.8647995      0.0023323615  -0.0012974243   20.117259      18.833032      1.2842273     -1.591494       18191.23     
     33000   1.0531848      0.0023323615   0.00064623006  20.40719       18.843211      1.5639794     -1.5503398      18258.252    
     34000   1.2229894      0.0023323615   0.0010534262   20.726552      18.910412      1.8161393     -1.6999283      18218.533    
     35000   1.0030252      0.0023323615  -0.00070415429  20.48039       18.990898      1.4894924     -1.5033653      18275.816    
     36000   1.1279248      0.0023323615  -0.0026708338   20.563599      18.888631      1.6749683     -1.6276498      18216.403    
     37000   1.0225921      0.0023323615  -0.00037200624  20.481389      18.962839      1.5185493     -1.5801938      18340.252    
     38000   1.0650968      0.0023323615  -0.0036540071   20.284921      18.703252      1.5816687     -1.7714449      18229.497    
     39000   1.0864416      0.0023323615  -0.0023179504   20.524993      18.911627      1.6133657     -1.6281877      18267.26     
     40000   1.0216083      0.0023323615  -0.0015749148   20.286631      18.769543      1.5170883     -1.6512624      18290.545    
     41000   1.0185991      0.0023323615   0.00092350888  20.639967      19.127347      1.5126196     -1.5890241      18127.938    
     42000   1.0682229      0.0023323615   0.0002635825   20.319183      18.732872      1.5863111     -1.8089622      18118.776    
     43000   0.9958342      0.0023323615  -0.0012790112   20.191698      18.712884      1.4788138     -1.7098009      18184.34     
     44000   1.0584005      0.0023323615  -0.0025230919   20.309559      18.737834      1.5717247     -1.7461745      18182.611    
     45000   0.93759679     0.0023323615   0.00062726749  20.013885      18.621554      1.3923312     -1.8966957      18196.268    
     46000   0.93825513     0.0023323615  -0.0015491755   20.415405      19.022096      1.3933089     -1.5590955      18164.061    
     47000   1.1004758      0.0023323615  -0.0014425127   20.265105      18.630898      1.6342066     -1.8680692      18190.004    
     48000   0.89927323     0.0023323615  -0.0010049395   20.298607      18.963186      1.3354208     -1.470518       18102.904    
     49000   0.92648731     0.0023323615   0.0040818499   20.15413       18.778296      1.3758337     -1.766065       18289.379    
     50000   0.93708994     0.0023323615  -0.0012963761   20.310904      18.919326      1.3915786     -1.6336299      18191.004    
     51000   1.1061029      0.0023323615  -0.0034068229   20.697725      19.055162      1.6425628     -1.4548008      18221.251    
     52000   0.98820364     0.0023323615  -0.00072628994  20.591325      19.123842      1.4674824     -1.5301667      18233.857    
     53000   1.0508205      0.0023323615  -0.0025258101   20.200423      18.639954      1.5604685     -1.8448903      18302.697    
     54000   0.8812779      0.0023323615  -0.0014918228   20.223563      18.914865      1.3086977     -1.549967       18310.534    
     55000   0.96845278     0.0023323615   0.0032869952   20.553494      19.115341      1.4381524     -1.437181       18280.345    
     56000   1.0163744      0.0023323615  -0.0014248378   20.490513      18.981197      1.509316      -1.5657434      18469.638    
     57000   0.98320565     0.0023323615   0.0022602845   20.581117      19.121057      1.4600604     -1.3639102      18429.349    
     58000   1.0457782      0.0023323615  -0.00075630253  20.548758      18.995777      1.5529807     -1.4770063      18271.521    
     59000   1.0674797      0.0023323615   0.0016474744   20.529831      18.944623      1.5852074     -1.5919029      18235.505    
     60000   1.0234686      0.0023323615  -0.0028954321   20.448299      18.928448      1.5198509     -1.5834723      18379.309    
     61000   0.99335676     0.0023323615  -0.0025482374   20.297585      18.82245       1.4751348     -1.7154596      18155.342    
     62000   0.97122043     0.0023323615  -1.0203874e-05  20.414155      18.971893      1.4422623     -1.552672       18176.101    
     63000   1.0232129      0.0023323615  -0.00081722015  20.244102      18.724631      1.5194712     -1.7461457      18295.927    
     64000   0.90835897     0.0023323615  -0.00020444423  20.283057      18.934144      1.3489131     -1.4466546      18200.269    
     65000   0.99394102     0.0023323615  -0.00050962826  20.10824       18.632237      1.4760024     -1.7861536      18279.076    
     66000   1.0366943      0.0023323615  -0.0015220709   20.508049      18.968558      1.5394911     -1.6332895      18317.993    
     67000   1.0829421      0.0023323615   0.0010241259   20.351289      18.74312       1.6081691     -1.7669581      18308.431    
     68000   1.023795       0.0023323615  -0.0024976447   20.406662      18.886327      1.5203356     -1.6422215      18372.576    
     69000   0.94776857     0.0023323615   0.0018670542   20.376069      18.968633      1.4074363     -1.6441183      18353.431    
     70000   1.0808006      0.0023323615   0.0040953213   20.336457      18.731468      1.6049889     -1.720904       18346.283    
     71000   0.94372171     0.0023323615   0.00062462672  20.352612      18.951185      1.4014267     -1.5891872      18344.971    
     72000   1.0142163      0.0023323615   0.00079162399  20.303285      18.797174      1.5061112     -1.5443764      18160.71     
     73000   1.0267923      0.0023323615   0.0023118616   20.562546      19.03776       1.5247865     -1.4631845      18286.926    
     74000   1.0254704      0.0023323615   0.0065443815   20.528016      19.005192      1.5228236     -1.6738082      18121.013    
     75000   0.95886349     0.0023323615   0.0015802159   20.528116      19.104203      1.4239123     -1.5096736      18059.721    
     76000   1.0675655      0.0023323615  -0.0044123775   20.513251      18.927916      1.5853348     -1.6386928      18292.034    
     77000   1.0038564      0.0023323615  -0.00047051645  20.372233      18.881506      1.4907268     -1.6134525      18484.167    
     78000   1.0132772      0.0023323615   0.0019327488   20.548449      19.043733      1.5047166     -1.4738902      18220.23     
     79000   0.87628432     0.0023323615  -0.0023785265   20.246372      18.945089      1.3012822     -1.5188721      18121.247    
     80000   0.87163042     0.0023323615  -0.0031373851   20.321354      19.026982      1.2943712     -1.486614       18098.115    
     81000   0.97236184     0.0023323615   0.0013655563   20.117888      18.673931      1.4439573     -1.8952854      17967.72     
     82000   1.0357172      0.0023323615   9.0712299e-05  20.330203      18.792163      1.53804       -1.7608247      17983.133    
     83000   1.0234338      0.0023323615  -0.0024953779   20.557283      19.037484      1.5197991     -1.451735       18169.124    
     84000   1.0055735      0.0023323615   0.00051732115  20.616927      19.12365       1.4932767     -1.4527288      18251.237    
     85000   0.9776693      0.0023323615   0.0014676035   20.18          18.728161      1.4518389     -1.77481        18059.417    
     86000   0.95830695     0.0023323615   0.0013959301   20.160544      18.737458      1.4230858     -1.7876837      18221.537    
     87000   1.0163816      0.0023323615  -0.0027940193   20.342851      18.833524      1.5093266     -1.7011366      18159.038    
     88000   0.99462862     0.0023323615   0.0053329108   20.179755      18.702732      1.4770235     -1.7525151      18273.407    
     89000   0.92987363     0.0023323615   0.00088174529  20.154531      18.773669      1.3808623     -1.6081001      18022.367    
     90000   0.99221659     0.0023323615   0.0014738205   20.269822      18.79638       1.4734416     -1.7127203      18012.883    
     91000   1.0673243      0.0023323615  -0.00029027138  20.668792      19.083815      1.5849766     -1.4279866      17852.835    
     92000   0.94494064     0.0023323615  -0.0016055126   20.364888      18.961651      1.4032368     -1.4655533      18009.594    
     93000   1.0116179      0.0023323615  -0.0023595303   20.334372      18.832119      1.5022526     -1.8035514      17894.601    
     94000   1.147401       0.0023323615   0.00061941761  20.622154      18.918264      1.7038905     -1.6066204      17956.371    
     95000   1.0594449      0.0023323615   0.00098600263  20.38352       18.810244      1.5732757     -1.7612457      17883.652    
     96000   1.0161218      0.0023323615   0.0047313678   20.495921      18.98698       1.5089409     -1.4283899      17777.292    
     97000   0.88195255     0.0023323615   0.0023615346   20.253855      18.944156      1.3096995     -1.5313405      17854.914    
     98000   0.99070594     0.0023323615   0.00065711967  20.716306      19.245108      1.4711983     -1.465396       18079.61     
     99000   0.94269033     0.0023323615   0.0010075475   20.112267      18.712372      1.3998951     -1.7665799      17863.439    
    100000   0.9640902      0.0023323615   0.00063748458  20.399944      18.96827       1.431674      -1.563389       18081.382    
    101000   1.1801322      0.0023323615  -0.0026820342   20.720614      18.968117      1.7524964     -1.6258891      17970.933    
    102000   1.170492       0.0023323615   0.00027889456  20.767866      19.029685      1.7381806     -1.4342402      18103.761    
    103000   0.93672085     0.0023323615  -0.0045958896   20.528267      19.137237      1.3910305     -1.4248383      18205.746    
    104000   1.024607       0.0023323615  -0.0029216045   20.611712      19.09017       1.5215414     -1.3957382      18193.097    
    105000   0.95702274     0.0023323615   0.0051048202   20.29153       18.870351      1.4211788     -1.5998408      18277.285    
    106000   0.85387911     0.0023323615  -0.0021856364   20.27144       19.00343       1.2680105     -1.3449694      18219.049    
    107000   1.1575165      0.0023323615  -0.0034444499   20.613505      18.894593      1.7189121     -1.5772915      18062.139    
    108000   0.95598187     0.0023323615   0.00062066339  20.307417      18.887784      1.4196331     -1.5717267      18009.386    
    109000   0.96904906     0.0023323615  -0.0002595461   20.292075      18.853037      1.4390379     -1.6542112      18036.029    
    110000   1.0223206      0.0023323615   0.00010247936  20.679004      19.160858      1.5181461     -1.4865597      18130.799    
    111000   0.86073365     0.0023323615   0.00030525765  20.040498      18.762308      1.2781895     -1.6790737      18095.3      
    112000   0.9885457      0.0023323615  -0.00032564104  20.568696      19.100706      1.4679904     -1.6101132      18108.757    
    113000   0.96707485     0.0023323615  -0.0027302182   20.428011      18.991905      1.4361062     -1.4614045      18016.326    
    114000   1.0601525      0.0023323615  -0.0011303454   20.699863      19.125537      1.5743264     -1.4741232      18137.669    
    115000   1.0977043      0.0023323615   0.0012589888   20.502282      18.872191      1.6300909     -1.5577127      17913.459    
    116000   0.98500285     0.0023323615  -0.00015024866  20.411105      18.948376      1.4627292     -1.6380352      17814.455    
    117000   0.82351594     0.0023323615  -0.0011502637   20.216507      18.993586      1.2229212     -1.6370915      17956.103    
    118000   1.137468       0.0023323615   0.0017259999   20.581963      18.892823      1.68914       -1.7341983      17954.944    
    119000   0.9840519      0.0023323615  -0.001568357    20.421874      18.960557      1.4613171     -1.4543472      18057.378    
    120000   1.0654541      0.0023323615  -0.0015954409   20.416081      18.833881      1.5821993     -1.6163161      18021.443    
    121000   0.95137498     0.0023323615  -0.0026819649   20.288353      18.875561      1.4127918     -1.6275442      18110.912    
    122000   0.94419539     0.0023323615  -0.0014887962   20.820296      19.418166      1.4021302     -1.2009348      18670.139    
    123000   0.93775741     0.0023323615   0.0018016514   20.294105      18.901535      1.3925697     -1.6405352      18529.118    
    124000   1.0593233      0.0023323615   0.00038493129  20.659259      19.086164      1.5730952     -1.4497539      18280.164    
    125000   0.99523137     0.0023323615  -0.0016003205   20.459347      18.981428      1.4779186     -1.546162       18208.55     
    126000   1.051853       0.0023323615  -0.00024928257  20.519706      18.957705      1.5620017     -1.5221702      18257.23     
    127000   0.89716843     0.0023323615   0.00014047477  20.33606       19.003765      1.3322951     -1.5624395      18349.79     
    128000   0.90942209     0.0023323615  -0.00078638359  20.167888      18.817396      1.3504918     -1.5915291      18320.417    
    129000   0.95535423     0.0023323615  -0.0033739299   20.582243      19.163542      1.418701      -1.4019848      18326.563    
    130000   0.97822437     0.0023323615   0.0024103194   20.511845      19.059181      1.4526632     -1.5049546      18177.67     
    131000   1.0311184      0.0023323615   0.0038330467   20.376021      18.844811      1.5312108     -1.6790394      18089.226    
    132000   1.1079268      0.0023323615  -0.0036646543   20.583074      18.937802      1.6452713     -1.7747413      18009.672    
    133000   0.8237078      0.0023323615  -0.0060330887   19.970592      18.747386      1.2232061     -1.8303941      18073.972    
    134000   0.92811997     0.0023323615  -0.0022186775   20.497051      19.118792      1.3782582     -1.4503868      18108.586    
    135000   1.0474311      0.0023323615   0.0040146547   20.393609      18.838174      1.5554351     -1.677321       18269.808    
    136000   0.97220916     0.0023323615   0.0028543619   20.278053      18.834323      1.4437306     -1.7256321      18173.642    
    137000   0.94686501     0.0023323615  -0.00018252484  20.213011      18.806917      1.4060945     -1.7651703      18167.027    
    138000   0.93699002     0.0023323615  -0.0010813031   20.178765      18.787334      1.3914302     -1.7561746      18123.53     
    139000   0.94414091     0.0023323615  -0.0014220165   20.387288      18.985239      1.4020493     -1.5502295      18064.692    
    140000   1.0080546      0.0023323615   0.0011156433   20.014428      18.517466      1.4969611     -1.9716124      17938.267    
    141000   0.9769294      0.0023323615   0.001462285    20.336682      18.885942      1.4507402     -1.5878211      17887.113    
    142000   1.1042063      0.0023323615   0.0014092019   20.386995      18.747249      1.6397463     -1.7084132      17991.655    
    143000   0.95156245     0.0023323615  -0.001885842    20.122223      18.709153      1.4130702     -1.8285859      17951.944    
    144000   1.0959193      0.0023323615   0.0018481696   20.568794      18.941354      1.6274402     -1.5328671      17996.073    
    145000   1.1110774      0.0023323615   0.0018537163   20.366048      18.716098      1.64995       -1.6896485      18032.855    
    146000   1.1306366      0.0023323615   0.0034829458   20.620246      18.94125       1.6789953     -1.627974       18013.803    
    147000   1.0093442      0.0023323615   0.00025327426  20.174127      18.675251      1.4988761     -1.7890409      18083.537    
    148000   1.0434179      0.0023323615   0.0021892346   20.672147      19.122671      1.5494756     -1.5134314      18073.868    
    149000   0.97848882     0.0023323615  -0.0037235794   20.358895      18.905839      1.4530559     -1.6037984      18206.198    
    150000   1.205616       0.0023323615  -0.0025080427   20.762753      18.972413      1.7903398     -1.4944005      18020.385    
    151000   1.0225891      0.0023323615   0.0026401611   20.439177      18.920632      1.5185448     -1.5393912      18165.113    
    152000   1.0438909      0.0023323615  -0.0061554359   20.69924       19.149062      1.5501779     -1.3454952      18319.809    
    153000   0.97063894     0.0023323615   0.00062577483  20.4461        19.004701      1.4413988     -1.4933469      18319.18     
    154000   0.91080715     0.0023323615  -0.0021500545   20.532765      19.180216      1.3525486     -1.4666188      18153.843    
    155000   1.0419377      0.0023323615   0.00057293057  20.394279      18.847001      1.5472775     -1.6385211      18152.285    
    156000   0.89198527     0.0023323615  -0.00151603     20.168304      18.843706      1.3245981     -1.7003043      18165.575    
    157000   1.0083073      0.0023323615   0.0012068465   20.266563      18.769226      1.4973364     -1.79374        18212.244    
    158000   1.0325273      0.0023323615  -0.00041330779  20.447883      18.91458       1.533303      -1.6469856      18139.979    
    159000   0.94900475     0.0023323615   5.2056055e-05  20.605473      19.196201      1.4092721     -1.3301153      18271.477    
    160000   0.90566574     0.0023323615  -0.00066844539  20.495188      19.150275      1.3449136     -1.4383299      18351.241    
    161000   0.98850967     0.0023323615   0.00019589484  20.655998      19.188061      1.4679369     -1.3841773      18361.403    
    162000   0.97925264     0.0023323615   0.0055927625   20.466782      19.012592      1.4541902     -1.5323482      18196.092    
    163000   1.0322516      0.0023323615   0.00086916229  20.248197      18.715303      1.5328936     -1.652241       18306.081    
    164000   0.78643642     0.0023323615   0.001754738    20.210142      19.042284      1.1678581     -1.4077594      18220.912    
    165000   0.98952783     0.0023323615  -0.00029018134  20.731588      19.262139      1.4694488     -1.3470086      18287.737    
    166000   1.1014357      0.0023323615   0.0026080613   20.51591       18.880278      1.6356321     -1.6070897      18208.403    
    167000   1.0691334      0.0023323615   0.00085056814  20.644371      19.056708      1.5876631     -1.5271896      18313.715    
    168000   0.99048458     0.0023323615   0.0046835557   20.347751      18.876881      1.4708696     -1.7082495      18165.347    
    169000   0.98732636     0.0023323615   0.0014281944   20.379965      18.913785      1.4661796     -1.6666892      18134.877    
    170000   1.2538939      0.0023323615  -0.0027336585   20.80011       18.938077      1.8620325     -1.60734        18023.197    
    171000   1.2061566      0.0023323615  -0.000105548    20.54644       18.755297      1.7911426     -1.7001149      18037.156    
    172000   0.96669511     0.0023323615   0.0039486463   20.501814      19.066272      1.4355422     -1.5310059      18158.645    
    173000   1.0685801      0.0023323615  -0.00075307475  20.472372      18.885531      1.5868414     -1.6329449      18052.9      
    174000   0.89823444     0.0023323615  -0.0025353283   20.437407      19.103529      1.3338781     -1.482361       18193.8      
    175000   0.96709737     0.0023323615  -0.0024933979   20.621536      19.185397      1.4361396     -1.3233787      18395.801    
    176000   0.92267574     0.0023323615   0.002304166    20.485308      19.115135      1.3701735     -1.36226        18235.779    
    177000   0.78590455     0.0023323615  -0.0011728168   20.080686      18.913618      1.1670683     -1.460157       18158.929    
    178000   0.98673419     0.0023323615   0.0020223935   20.304552      18.839251      1.4653003     -1.5757506      18238.908    
    179000   1.1124114      0.0023323615   0.0015083241   20.596212      18.944281      1.6519309     -1.57681        18189.307    
    180000   1.0359995      0.0023323615  -0.00020623389  20.304409      18.76595       1.5384592     -1.7976494      18139.521    
    181000   1.0925487      0.0023323615   0.0051444715   20.625555      19.00312       1.6224349     -1.5939619      18072.434    
    182000   1.0384083      0.0023323615  -0.0031781162   20.649683      19.107646      1.5420363     -1.382865       18296.728    
    183000   0.93745586     0.0023323615   0.0011687879   20.106944      18.714822      1.3921219     -1.8044409      18205.322    
    184000   0.85474448     0.0023323615  -0.0029770738   20.363033      19.093738      1.2692956     -1.3915895      18213.278    
    185000   0.96110473     0.0023323615  -0.00083576705  20.155926      18.728685      1.4272405     -1.6079199      18119.908    
    186000   1.1567856      0.0023323615  -0.0012959866   20.693531      18.975704      1.7178267     -1.5906374      18132.878    
    187000   0.91275918     0.0023323615   0.0023836292   20.1959        18.840452      1.3554474     -1.66558        18234.746    
    188000   1.0972383      0.0023323615   0.0011713956   20.437299      18.807901      1.6293989     -1.740602       18232.208    
    189000   0.8415833      0.0023323615  -0.0025233647   20.464245      19.214494      1.2497512     -1.3690383      18351.879    
    190000   1.0602947      0.0023323615  -0.0014989936   20.656158      19.08162       1.5745377     -1.4862911      18430.132    
    191000   0.97014461     0.0023323615   8.6637402e-05  20.548559      19.107894      1.4406647     -1.5110651      18245.379    
    192000   1.0730321      0.0023323615  -0.00016948745  20.349188      18.755735      1.5934527     -1.7581037      18214.584    
    193000   1.2050799      0.0023323615   0.0019656456   20.616614      18.82707       1.7895436     -1.618969       18121.819    
    194000   1.0063192      0.0023323615  -0.0038326843   20.355285      18.860901      1.494384      -1.5794138      18174.274    
    195000   0.96889782     0.0023323615   0.0037153006   20.159897      18.721084      1.4388133     -1.7663551      18082.803    
    196000   1.0843161      0.0023323615  -0.0039628939   20.40224       18.79203       1.6102094     -1.6607418      18066.34     
    197000   0.90779079     0.0023323615  -0.0033870498   20.206406      18.858337      1.3480693     -1.6404754      17940.782    
    198000   0.98581735     0.0023323615   0.00034140845  20.356928      18.892989      1.4639388     -1.6287607      18053.779    
    199000   0.98014058     0.0023323615  -0.00071903812  20.410978      18.955469      1.4555088     -1.5924624      18014.996    
    200000   1.0600997      0.0023323615   0.0013474573   20.517993      18.943744      1.5742481     -1.5862086      18066.245    
    201000   0.85088671     0.0023323615  -0.0015604026   20.145355      18.881789      1.2635668     -1.5846679      17991.778    
    202000   1.0616221      0.0023323615   0.0011752312   20.29649       18.719982      1.5765088     -1.8094548      18172.292    
    203000   1.064231       0.0023323615   0.0023528167   20.416826      18.836443      1.580383      -1.6412819      18230.872    
    204000   0.9694557      0.0023323615  -0.0030855502   20.531786      19.092144      1.4396417     -1.4694556      18142.004    
    205000   1.2072182      0.0023323615   0.00057702242  20.611013      18.818294      1.792719      -1.7084729      18260.807    
    206000   1.0810119      0.0023323615  -4.8573848e-05  20.456462      18.85116       1.6053027     -1.6101918      18181.617    
    207000   1.1231578      0.0023323615  -0.00028224941  20.72234       19.05445       1.6678894     -1.4304849      18197.047    
    208000   1.0761762      0.0023323615   0.0020528057   20.405693      18.807571      1.5981216     -1.6214415      18185.662    
    209000   1.1691579      0.0023323615   0.00034007252  20.811333      19.075133      1.7361995     -1.5044805      18062.884    
    210000   1.0357903      0.0023323615   0.0025569334   20.757462      19.219313      1.5381487     -1.4633969      18003.942    
    211000   1.005826       0.0023323615   0.00095500546  20.591338      19.097686      1.4936516     -1.5391865      18184.916    
    212000   0.91407683     0.0023323615  -0.0001569675   20.039412      18.682008      1.3574041     -1.7625532      18016.524    
    213000   0.98477181     0.0023323615   0.0018613394   20.350564      18.888178      1.4623861     -1.720247       17952.415    
    214000   0.96429501     0.0023323615   0.00071336119  20.362119      18.930141      1.4319781     -1.6190622      17881.104    
    215000   1.0334871      0.0023323615  -0.0022503969   20.518655      18.983926      1.5347283     -1.5738243      18309.841    
    216000   1.0021211      0.0023323615  -0.0058166769   20.547757      19.059607      1.4881498     -1.4973492      18322.694    
    217000   0.92769019     0.0023323615  -0.0023138516   20.483692      19.106072      1.3776199     -1.4946881      18510.322    
    218000   0.99750774     0.0023323615   0.0015643704   20.549868      19.06857       1.481299      -1.4971728      18206.427    
    219000   0.99632389     0.0023323615  -0.00066366615  20.176237      18.696696      1.479541      -1.7826055      18172.425    
    220000   1.1164944      0.0023323615  -0.00083542772  20.434352      18.776358      1.6579942     -1.8362094      18005.328    
    221000   1.0885726      0.0023323615  -0.0036086415   20.275592      18.659062      1.6165303     -1.8365935      17967.885    
    222000   0.90770926     0.0023323615  -0.0005653823   20.003435      18.655486      1.3479482     -1.8330221      18021.202    
    223000   1.0850339      0.0023323615  -0.0024908616   20.454954      18.843679      1.6112753     -1.753682       18101.463    
    224000   1.0755035      0.0023323615   0.0059276182   20.370621      18.773498      1.5971226     -1.6981421      18131.105    
    225000   1.0177496      0.0023323615  -0.00262682     20.347059      18.835701      1.5113581     -1.6976419      18257.3      
    226000   0.95097108     0.0023323615   0.0030732005   20.392804      18.980612      1.412192      -1.5064369      18148.575    
    227000   1.0588039      0.0023323615  -0.0020580805   20.72188       19.149556      1.5723238     -1.4219169      18203.296    
    228000   1.0467268      0.0023323615  -0.00036133439  20.513362      18.958972      1.5543894     -1.6268926      18111.566    
    229000   0.95855705     0.0023323615   0.0011405662   20.432345      19.008888      1.4234572     -1.5282587      18073.197    
    230000   1.0430887      0.0023323615  -0.0016989149   20.373286      18.824299      1.5489868     -1.703925       18026.214    
    231000   1.1331291      0.0023323615   0.00075240133  20.719096      19.036399      1.6826967     -1.4730661      17919.296    
    232000   1.085206       0.0023323615  -0.0022328988   20.711848      19.100317      1.6115309     -1.4309364      18168.875    
    233000   0.9272365      0.0023323615  -0.0021764184   20.314659      18.937713      1.3769462     -1.5215468      18236.801    
    234000   1.0770481      0.0023323615   0.0023313509   20.574581      18.975165      1.5994164     -1.4901503      18104.431    
    235000   1.0927512      0.0023323615  -0.0012694531   20.653174      19.030438      1.6227356     -1.4928955      18044.787    
    236000   1.1126408      0.0023323615   0.00020310429  20.698323      19.046052      1.6522715     -1.4211979      18302.435    
    237000   1.0797753      0.0023323615   0.0015760009   20.577734      18.974267      1.6034664     -1.6376263      18202.967    
    238000   0.97777428     0.0023323615   0.0039210596   20.344949      18.892954      1.4519948     -1.6337796      18223.819    
    239000   0.97807297     0.0023323615   0.0020108296   20.302129      18.849691      1.4524384     -1.7190336      18029.992    
    240000   1.0256512      0.0023323615   0.0027229526   20.321523      18.798431      1.523092      -1.7358331      18112.362    
    241000   0.99180065     0.0023323615  -0.0019994396   20.36953       18.896706      1.472824      -1.5694207      18316.655    
    242000   1.0184084      0.0023323615   0.00084742806  20.547397      19.03506       1.5123365     -1.4643929      18440.003    
    243000   0.84567529     0.0023323615   0.00085916557  20.094563      18.838735      1.2558278     -1.7276893      18422.584    
    244000   1.0490645      0.0023323615   0.0042706197   20.531646      18.973786      1.5578608     -1.6676794      18336.566    
    245000   1.0338569      0.0023323615   0.0046808833   20.415228      18.879951      1.5352775     -1.5611         18401.285    
    246000   0.83600505     0.0023323615  -0.0031117309   20.372263      19.130795      1.2414675     -1.4236593      18441.85     
    247000   0.8648783      0.0023323615   0.0015271233   20.469287      19.184943      1.2843443     -1.3169864      18561.543    
    248000   0.92636247     0.0023323615   0.0013084846   20.143459      18.767811      1.3756483     -1.7892496      18268.096    
    249000   0.98428437     0.0023323615   0.0040682657   20.420648      18.958985      1.4616623     -1.5987408      18260.63     
    250000   0.94953647     0.0023323615   0.0018940132   20.366437      18.956376      1.4100617     -1.6418373      18247.307    
    251000   0.87218036     0.0023323615  -0.001231205    20.257146      18.961958      1.2951878     -1.5684142      18180.991    
    252000   0.98582227     0.0023323615  -0.0022129627   20.171826      18.70788       1.4639461     -1.7241488      18179.329    
    253000   0.7787011      0.0023323615   0.0027394269   20.371435      19.215064      1.1563711     -1.4073243      18103.479    
    254000   0.92317783     0.0023323615  -0.00086438481  20.193059      18.82214       1.3709191     -1.7879925      18084.199    
    255000   1.04931        0.0023323615  -2.4017555e-06  20.469808      18.911582      1.5582253     -1.6300784      18135.385    
    256000   0.96493761     0.0023323615  -0.00067901325  20.272549      18.839616      1.4329324     -1.7087352      17965.864    
    257000   1.1343342      0.0023323615  -0.0021345914   20.472398      18.787912      1.6844863     -1.7116299      18034.08     
    258000   1.1301663      0.0023323615  -0.00084593916  20.682667      19.00437       1.6782969     -1.5291158      17996.615    
    259000   1.0752357      0.0023323615   0.0012442863   20.407176      18.810451      1.5967251     -1.5870675      18100.097    
    260000   0.81868619     0.0023323615   0.00076091084  19.974961      18.759212      1.215749      -1.7127446      18098.745    
    261000   0.92715242     0.0023323615   0.0024122803   20.296935      18.920113      1.3768213     -1.5687318      18092.807    
    262000   0.99002388     0.0023323615   0.00056704642  20.321893      18.851708      1.4701855     -1.6138595      18039.569    
    263000   1.0084648      0.0023323615   0.0012016725   20.330175      18.832605      1.4975703     -1.6949452      18283.76     
    264000   1.2160734      0.0023323615  -0.0014940317   20.962325      19.156456      1.805869      -1.4065431      18092.512    
    265000   1.0713522      0.0023323615   0.00021701652  20.686693      19.095735      1.590958      -1.4028953      18170.486    
    266000   1.0714534      0.0023323615  -0.00038679691  20.795775      19.204667      1.5911083     -1.3971726      18121.425    
    267000   0.9967569      0.0023323615   0.002202704    20.647614      19.16743       1.480184      -1.4452063      18276.927    
    268000   1.0636447      0.0023323615  -0.00049385928  20.635318      19.055806      1.5795123     -1.4001499      18253.19     
    269000   0.85576462     0.0023323615  -0.0035773371   20.111518      18.840707      1.2708105     -1.6535617      18398.246    
    270000   1.0204188      0.0023323615  -0.0034894324   20.416989      18.901667      1.5153219     -1.6544878      18309.22     
    271000   0.96986198     0.0023323615  -0.0015144719   20.411034      18.970789      1.440245      -1.5861823      18209.932    
    272000   0.9514544      0.0023323615   0.0014155754   20.259558      18.846648      1.4129098     -1.5928956      18045.88     
    273000   0.94153392     0.0023323615   0.0050314803   20.687176      19.288998      1.3981779     -1.3293236      18037.456    
    274000   1.0209108      0.0023323615  -0.0019652071   20.552663      19.036611      1.5160526     -1.3840938      18254.612    
    275000   0.94448262     0.0023323615  -0.00040864979  20.527959      19.125402      1.4025567     -1.4163652      18179.326    
    276000   1.0653286      0.0023323615  -0.0011461281   20.718721      19.136708      1.582013      -1.329925       18290.609    
    277000   0.95914271     0.0023323615  -0.0029073594   20.409319      18.984992      1.4243269     -1.5353052      18165.258    
    278000   1.1836539      0.0023323615  -0.00091595451  20.473685      18.715959      1.757726      -1.8388224      18100.111    
    279000   0.90855744     0.0023323615   0.0033498624   20.065398      18.716191      1.3492078     -1.7517613      17947.318    
    280000   0.96787686     0.0023323615   0.00091160488  20.360535      18.923238      1.4372971     -1.562972       18007.212    
    281000   0.884708       0.0023323615  -0.003132966    20.478413      19.164622      1.3137914     -1.360471       18242.078    
    282000   0.95809849     0.0023323615  -0.00066165076  20.418995      18.996219      1.4227763     -1.6254615      18151.816    
    283000   1.142976       0.0023323615  -0.0006436002   20.700436      19.003117      1.6973194     -1.6033034      18212.863    
    284000   1.1673048      0.0023323615  -0.0013625818   20.77308       19.039632      1.7334477     -1.5063686      18059.374    
    285000   1.1116785      0.0023323615   0.00021712354  20.494542      18.8437        1.6508425     -1.7219407      18325.742    
    286000   1.0572617      0.0023323615   0.0013438974   20.326674      18.756641      1.5700336     -1.840351       18184.045    
    287000   0.88686683     0.0023323615  -0.00021052219  20.089405      18.772408      1.3169972     -1.8038599      18157.829    
    288000   0.90261951     0.0023323615  -0.0013367987   20.323699      18.983309      1.34039       -1.5652776      18030.336    
    289000   0.98919502     0.0023323615   0.00039655627  20.407275      18.93832       1.4689546     -1.5334392      18134.067    
    290000   0.94027212     0.0023323615  -0.0035379818   20.514238      19.117934      1.3963041     -1.476523       18296.741    
    291000   0.89318951     0.0023323615   0.0017463935   20.255105      18.928719      1.3263864     -1.6489992      18140.454    
    292000   0.99558771     0.0023323615   0.0029266113   20.678487      19.200039      1.4784477     -1.4067386      18259.548    
    293000   0.97922314     0.0023323615   0.0042858623   20.242643      18.788497      1.4541464     -1.6625174      18228.329    
    294000   0.90013932     0.0023323615  -0.00012626422  20.056264      18.719557      1.3367069     -1.7475868      18327.408    
    295000   1.0378064      0.0023323615  -0.0054348699   20.620755      19.079613      1.5411425     -1.4913038      18328.475    
    296000   0.99673417     0.0023323615   7.2617453e-05  20.499848      19.019698      1.4801502     -1.4618859      18331.915    
    297000   0.85225849     0.0023323615  -0.0016319989   20.217813      18.952209      1.2656039     -1.6782041      18190.59     
    298000   0.89532867     0.0023323615  -0.0014285512   20.218631      18.889068      1.3295631     -1.7253126      18201.401    
    299000   0.85422399     0.0023323615   0.0044307729   20.313849      19.045327      1.2685226     -1.644535       18053.044    
    300000   1.0629542      0.0023323615   0.00095915711  20.510024      18.931537      1.5784869     -1.5704303      18016.612    
    301000   0.99457197     0.0023323615   0.0032475739   20.309372      18.832433      1.4769394     -1.705485       18135.694    
    302000   0.94489933     0.0023323615   0.00038436531  20.238796      18.83562       1.4031755     -1.7251949      18136.469    
    303000   0.93781412     0.0023323615   0.0010766617   20.167507      18.774854      1.392654      -1.6424879      18174.784    
    304000   1.0161529      0.0023323615   0.0025818616   20.293527      18.78454       1.5089871     -1.7430856      18144.589    
    305000   1.0012522      0.0023323615  -0.0011145655   20.231283      18.744423      1.4868594     -1.7864263      18100.015    
    306000   0.8840575      0.0023323615  -0.00036976926  20.118244      18.805419      1.3128254     -1.6102836      18074.365    
    307000   0.99497401     0.0023323615   0.0010297418   20.23956       18.762024      1.4775364     -1.6800296      18146.044    
    308000   1.0965183      0.0023323615  -0.00036645002  20.420456      18.792127      1.6283297     -1.7212664      18279.498    
    309000   1.0166236      0.0023323615   0.0017246537   20.328961      18.819275      1.5096861     -1.7986995      18176.349    
    310000   0.97743255     0.0023323615  -0.00053678653  20.336259      18.884771      1.4514873     -1.6446472      18112.464    
    311000   0.85294166     0.0023323615   0.00097038576  20.208263      18.941645      1.2666184     -1.5698364      18076.447    
    312000   1.0005672      0.0023323615  -0.0022424045   20.63834       19.152497      1.4858424     -1.5438929      18030.141    
    313000   1.0314019      0.0023323615   0.0013191385   20.366393      18.834761      1.5316318     -1.7361816      18023.773    
    314000   1.0741242      0.0023323615  -0.003496564    20.85124       19.256166      1.5950744     -1.4789627      18200.637    
    315000   0.96181058     0.0023323615  -0.0015628705   20.224534      18.796245      1.4282887     -1.7195881      18141.42     
    316000   0.84627213     0.0023323615  -0.001922622    20.216177      18.959463      1.2567141     -1.6790368      18021.078    
    317000   1.0262938      0.0023323615   0.0019415235   20.352974      18.828928      1.5240462     -1.7153341      18047.838    
    318000   0.89957946     0.0023323615  -0.0038621542   20.332583      18.996708      1.3358755     -1.5513786      18426.73     
    319000   0.96796234     0.0023323615   0.0030192983   20.214434      18.77701       1.4374241     -1.8001293      18205.737    
    320000   1.0197122      0.0023323615  -0.0021780294   20.29434       18.780068      1.5142727     -1.8153588      18061.178    
    321000   1.1562585      0.0023323615  -0.0003015696   20.417269      18.700225      1.7170439     -1.8760329      18041.936    
    322000   0.92679548     0.0023323615   0.00081698883  20.059892      18.683601      1.3762913     -1.7872428      18023.965    
    323000   1.0767048      0.0023323615   0.00097587761  20.636867      19.03796       1.5989066     -1.6183106      18186.245    
    324000   0.93611515     0.0023323615  -0.00058030196  20.255475      18.865344      1.390131      -1.6091726      18171.594    
    325000   1.0153002      0.0023323615   0.00083087546  20.223158      18.715437      1.5077209     -1.9149958      18131.399    
    326000   1.2686072      0.0023323615  -0.00356299     20.769237      18.885355      1.8838817     -1.645596       18130.694    
    327000   0.97603168     0.0023323615  -0.0048199656   20.292665      18.843258      1.449407      -1.7083501      18131.58     
    328000   1.058149       0.0023323615   0.00053552423  20.569837      18.998486      1.5713512     -1.6233067      17993.02     
    329000   1.0103498      0.0023323615  -0.00083183201  20.745971      19.245602      1.5003695     -1.3610164      18016.06     
    330000   0.90071749     0.0023323615  -0.0011122857   20.397444      19.059878      1.3375655     -1.5013065      18123.527    
    331000   1.0234754      0.0023323615  -0.0010289224   20.319692      18.799831      1.519861      -1.6372478      18235.166    
    332000   1.0056948      0.0023323615   0.0042619842   20.484645      18.991188      1.4934568     -1.4723459      18260.256    
    333000   0.96109368     0.0023323615   0.0026930844   20.340877      18.913652      1.4272241     -1.5961604      18299.043    
    334000   0.90896614     0.0023323615   0.0036609108   20.111149      18.761334      1.3498147     -1.6974262      18139.485    
    335000   1.0115328      0.0023323615   0.00054902216  20.534248      19.032122      1.5021262     -1.5527245      17883.655    
    336000   1.012028       0.0023323615   2.7253604e-06  20.405875      18.903013      1.5028615     -1.6271416      17987.417    
    337000   1.0106901      0.0023323615  -0.0051456111   20.269081      18.768206      1.5008749     -1.6500347      18145.54     
    338000   1.0970546      0.0023323615   0.0025860612   20.682221      19.053095      1.6291261     -1.527552       18015.624    
    339000   0.94545344     0.0023323615   0.0020435494   20.138666      18.734668      1.4039984     -1.8351422      17991.817    
    340000   0.94210264     0.0023323615  -0.0026741927   20.203467      18.804444      1.3990224     -1.7806594      18015.994    
    341000   1.0662915      0.0023323615  -0.00041796986  20.631392      19.047949      1.5834429     -1.5129602      18049.691    
    342000   1.0312538      0.0023323615  -0.0027815318   20.317346      18.785934      1.5314119     -1.73564        18124.067    
    343000   0.9916695      0.0023323615  -0.0006899872   20.258874      18.786244      1.4726292     -1.6736709      18024.824    
    344000   1.109278       0.0023323615  -0.00032590576  20.383643      18.736365      1.6472779     -1.8031652      18105.259    
    345000   1.0917838      0.0023323615  -1.1365862e-05  20.6153        18.994001      1.621299      -1.5503558      18181.591    
    346000   0.9600366      0.0023323615  -0.003656462    20.292615      18.86696       1.4256544     -1.6564097      18159.461    
    347000   1.0536346      0.0023323615   0.0027109263   20.382404      18.817757      1.5646474     -1.6082558      18153.331    
    348000   0.96492426     0.0023323615   0.002538292    20.287708      18.854795      1.4329125     -1.6631098      18169.848    
    349000   0.90178157     0.0023323615  -0.00018246599  20.467137      19.127991      1.3391456     -1.4000021      17956.113    
    350000   0.9999419      0.0023323615   0.00097960346  20.396249      18.911335      1.4849137     -1.644148       18101.433    
    351000   1.0504176      0.0023323615   0.0049883058   20.396838      18.836968      1.5598701     -1.7254251      18027.191    
    352000   0.97429409     0.0023323615  -0.0027036241   20.21637       18.769543      1.4468267     -1.7788283      17978.588    
    353000   1.0309593      0.0023323615  -0.0048464325   20.41111       18.880135      1.5309746     -1.6808715      18060.851    
    354000   0.98107428     0.0023323615  -0.0028973004   20.449652      18.992756      1.4568953     -1.5426461      17992.122    
    355000   0.94419039     0.0023323615  -0.001466425    20.468613      19.06649       1.4021227     -1.5406649      18266.853    
    356000   0.90169556     0.0023323615   0.0011454365   20.289322      18.950304      1.3390179     -1.51348        18159.828    
    357000   0.9889585      0.0023323615  -0.0015002453   20.316252      18.847649      1.4686034     -1.6263405      18201.802    
    358000   0.88859149     0.0023323615   0.001167025    20.375301      19.055742      1.3195584     -1.4169682      18255.433    
    359000   0.90165174     0.0023323615  -0.0025644118   20.262157      18.923204      1.3389528     -1.6890994      18306.725    
    360000   0.9026176      0.0023323615  -0.0025437807   20.135128      18.794741      1.3403871     -1.7884961      18162.594    
    361000   0.95837719     0.0023323615  -0.0022188599   20.230654      18.807464      1.4231901     -1.6887061      18260.918    
    362000   1.062128       0.0023323615  -0.0023833476   20.570779      18.993519      1.5772601     -1.5957941      18083.442    
    363000   0.81629222     0.0023323615  -0.002907601    20.193673      18.981479      1.2121939     -1.6459191      18018.583    
    364000   0.97156018     0.0023323615  -0.0017132159   20.0979        18.655133      1.4427669     -1.7804721      18014.095    
    365000   0.95079372     0.0023323615  -0.0033853561   20.345296      18.933367      1.4119287     -1.584257       18126.542    
    366000   1.0285426      0.0023323615  -0.0063239281   20.67573       19.148345      1.5273857     -1.4128943      18102.031    
    367000   1.0360197      0.0023323615   0.00092681075  20.321478      18.782989      1.5384892     -1.6742261      18074.087    
    368000   1.0209227      0.0023323615   0.00064116407  20.465815      18.949745      1.5160702     -1.5359171      18221.713    
    369000   0.90269508     0.0023323615   0.0065867481   20.103814      18.763312      1.3405022     -1.7803339      18216.206    
    370000   1.0130333      0.0023323615  -0.00084172265  20.355435      18.851081      1.5043545     -1.6417975      18200.627    
    371000   1.013662       0.0023323615   0.002084398    20.526021      19.020733      1.5052881     -1.5070406      17949.862    
    372000   1.0269251      0.0023323615  -0.0053378898   20.864898      19.339914      1.5249838     -1.2266762      18091.6      
    373000   1.191215       0.0023323615   0.0014590772   20.492808      18.723854      1.7689543     -1.7022823      18026.605    
    374000   1.0791736      0.0023323615   0.004386666    20.472321      18.869748      1.6025728     -1.5514539      17946.037    
    375000   0.99600956     0.0023323615  -0.0011433128   20.465409      18.986334      1.4790742     -1.5960826      17989.67     
    376000   0.97856915     0.0023323615  -0.00019929053  20.470073      19.016897      1.4531752     -1.4059181      17979.715    
    377000   1.1535193      0.0023323615   0.0023340043   20.55418       18.841204      1.7129762     -1.7842562      18064.326    
    378000   0.9098294      0.0023323615   0.0041339396   20.473419      19.122322      1.3510967     -1.3634533      18036.498    
    379000   0.85389213     0.0023323615   0.0014234508   20.485908      19.217879      1.2680298     -1.3896211      17973.696    
    380000   0.98557129     0.0023323615   0.0037349274   20.264514      18.800941      1.4635734     -1.7163151      18156.802    
    381000   1.1618207      0.0023323615   0.0030284141   20.392762      18.667458      1.7253037     -1.7841916      18037.971    
    382000   1.0509687      0.0023323615  -0.0014591218   20.494078      18.933389      1.5606885     -1.5740381      18031.222    
    383000   0.94941176     0.0023323615   0.0041180118   19.946097      18.536221      1.4098765     -2.0347202      18079.115    
    384000   1.0710388      0.0023323615   0.0030328454   20.372369      18.781876      1.5904926     -1.8103927      18064.051    
    385000   0.84085992     0.0023323615   0.0016636142   20.31996       19.071283      1.248677      -1.4809921      18074.741    
    386000   1.1834836      0.0023323615  -0.0019528181   20.79651       19.039037      1.7574731     -1.6243462      17967.911    
    387000   0.91263074     0.0023323615  -0.0013097362   19.96596       18.610704      1.3552566     -1.7755866      17986.539    
    388000   1.1383208      0.0023323615  -0.00092062539  20.249245      18.558839      1.6904064     -1.9187021      18071.531    
    389000   0.99882875     0.0023323615  -0.0017614512   20.364374      18.881113      1.4832607     -1.7094934      18180.69     
    390000   0.96866846     0.0023323615   0.0037268942   20.489051      19.050579      1.4384727     -1.5519109      18285.506    
    391000   1.023          0.0023323615   0.00021433091  20.32903       18.809875      1.519155      -1.7775479      18204.854    
    392000   0.9517434      0.0023323615   0.00040665679  20.081438      18.6681        1.4133389     -1.8196015      18149.331    
    393000   0.94137274     0.0023323615  -0.0039242906   20.193239      18.7953        1.3979385     -1.7212833      18132.143    
    394000   0.98089959     0.0023323615   0.0032920602   20.43799       18.981354      1.4566359     -1.5217147      18364.96     
    395000   0.94909116     0.0023323615  -0.00050297767  20.321947      18.912547      1.4094004     -1.5448055      18446.311    
    396000   1.1523448      0.0023323615   0.0034306224   20.564149      18.852917      1.7112321     -1.5921329      18370.74     
    397000   0.9648468      0.0023323615   0.00056662712  20.181256      18.748459      1.4327975     -1.8150157      18340.629    
    398000   0.92851698     0.0023323615   0.0044624901   19.910907      18.53206       1.3788477     -1.9587884      18128.04     
    399000   0.94148416     0.0023323615   0.0012863437   20.296684      18.89858       1.398104      -1.6540759      18123.79     
    400000   1.0285448      0.0023323615  -0.0010115941   20.613898      19.086509      1.527389      -1.52641        18213.171    
    401000   1.1154306      0.0023323615  -0.00036024668  20.720413      19.063999      1.6564144     -1.4031463      18360.072    
    402000   0.89396143     0.0023323615  -0.0019007333   20.273252      18.945719      1.3275327     -1.5476896      18294.93     
    403000   0.99140576     0.0023323615   0.0052752734   20.233104      18.760866      1.4722376     -1.7048587      18223.094    
    404000   0.93069725     0.0023323615  -0.0018949377   20.138089      18.756004      1.3820854     -1.7803461      18009.62     
    405000   0.95465445     0.0023323615   0.0013268367   20.373422      18.95576       1.4176619     -1.669488       18119.342    
    406000   1.0106312      0.0023323615  -0.0020263221   20.894372      19.393584      1.5007873     -1.2465069      18123.596    
    407000   1.0175399      0.0023323615   0.0027132415   20.257921      18.746874      1.5110468     -1.6473311      18135.243    
    408000   1.0281377      0.0023323615  -0.0017281823   20.449145      18.92236       1.5267845     -1.5635284      18088.987    
    409000   0.88796339     0.0023323615  -0.0045430144   20.551564      19.232938      1.3186256     -1.2587723      18173.388    
    410000   0.97626349     0.0023323615   0.0040647355   20.354889      18.905137      1.4497513     -1.680392       18316.554    
[...]
    861000   0.91527151     0.0023323615  -0.00022423644  20.069537      18.710359      1.3591782     -1.8047941      18104.832    
    862000   0.94103946     0.0023323615  -0.0014319855   20.018191      18.620748      1.3974436     -1.7565539      18118.125    
    863000   0.89369586     0.0023323615  -0.00232624     19.779033      18.451894      1.3271384     -1.8890087      17969.15     
    864000   0.87433701     0.0023323615  -0.0015953554   20.380958      19.082567      1.2983905     -1.3563897      18230.966    
    865000   1.0441484      0.0023323615  -0.0028079956   20.526416      18.975856      1.5505604     -1.5191814      18261.051    
    866000   0.98335923     0.0023323615  -0.0018227811   20.39852       18.938231      1.4602885     -1.4200976      18198.444    
    867000   1.0750161      0.0023323615   0.0010144951   20.5958        18.999401      1.5963989     -1.5916215      18070.792    
    868000   1.0291557      0.0023323615  -0.0024019537   20.281468      18.753172      1.5282961     -1.8031268      18013.637    
    869000   0.87997338     0.0023323615   0.0016609086   20.172645      18.865884      1.3067605     -1.5742664      17887.344    
    870000   1.0510696      0.0023323615   0.0012814541   20.289633      18.728795      1.5608384     -1.8433042      17919.051    
    871000   0.91078583     0.0023323615  -0.0013533024   20.172788      18.820271      1.352517      -1.6946524      17969.205    
    872000   1.0325864      0.0023323615   0.0030980597   20.535141      19.00175       1.5333908     -1.5311494      18166.253    
    873000   1.0449962      0.0023323615   0.0043201451   20.411275      18.859456      1.5518193     -1.573741       18155.719    
    874000   1.0591519      0.0023323615   0.00056911827  20.485584      18.912744      1.5728405     -1.5885514      18024.264    
    875000   1.0295497      0.0023323615  -0.00021627163  20.220599      18.691718      1.5288812     -1.7875127      17947.431    
    876000   1.1305115      0.0023323615  -0.00070763586  20.315585      18.636776      1.6788096     -1.7840217      17991.405    
    877000   1.0728954      0.0023323615   0.0002630513   20.673361      19.080112      1.5932497     -1.4833682      18147.083    
    878000   0.96190503     0.0023323615  -0.00039704823  20.265245      18.836816      1.428429      -1.6166023      18293.777    
    879000   1.0185568      0.0023323615  -0.00034092855  20.501965      18.989408      1.5125569     -1.4537179      18327.664    
    880000   1.072232       0.0023323615   0.0020412899   20.719379      19.127114      1.5922645     -1.4758479      18364.902    
    881000   1.1181201      0.0023323615   0.0032038162   20.519766      18.859358      1.6604083     -1.5635372      18192.659    
    882000   1.0931933      0.0023323615  -0.0020156286   20.691421      19.068029      1.6233921     -1.5021635      18241.704    
    883000   0.87030893     0.0023323615   0.0017654497   20.198003      18.905594      1.2924088     -1.6148468      18219.564    
    884000   0.98999338     0.0023323615  -0.0013958869   20.163552      18.693412      1.4701402     -1.7444266      17923.746    
    885000   1.0022135      0.0023323615  -0.0013515573   20.678723      19.190436      1.488287      -1.2989468      18098.63     
    886000   0.92300906     0.0023323615  -0.00082934266  20.110125      18.739457      1.3706684     -1.7596053      17918.736    
    887000   0.98263111     0.0023323615  -0.0027832737   20.623186      19.163979      1.4592072     -1.3714375      18010.627    
    888000   0.99569859     0.0023323615   0.0033072648   20.331263      18.852651      1.4786124     -1.6773186      18053.599    
    889000   0.91425793     0.0023323615   0.0014514881   20.177535      18.819862      1.357673      -1.651755       18076.008    
    890000   1.0008223      0.0023323615  -0.0018739379   20.386919      18.900698      1.4862211     -1.6478952      18129.567    
    891000   1.1431602      0.0023323615   0.0017418517   20.442597      18.745004      1.6975928     -1.7263617      18138.908    
    892000   1.0077921      0.0023323615  -0.0019394306   20.270509      18.773938      1.4965713     -1.6327692      18100.629    
    893000   1.0115938      0.0023323615  -0.0035829541   20.404215      18.901998      1.5022168     -1.6259932      18019.702    
    894000   0.90945607     0.0023323615  -0.0017499449   20.58142       19.230878      1.3505423     -1.398885       18109.059    
    895000   1.0527041      0.0023323615  -0.0056872187   20.488538      18.925272      1.5632656     -1.6360795      17974.204    
    896000   1.0122613      0.0023323615  -0.0019349893   20.585116      19.081908      1.503208      -1.4682683      17878.987    
    897000   1.2375767      0.0023323615   0.0028502852   20.682871      18.84507       1.8378014     -1.6845579      18043.697    
    898000   0.99579913     0.0023323615  -0.0029248487   20.440319      18.961557      1.4787617     -1.5469907      17928.791    
    899000   0.84532108     0.0023323615  -0.0011568269   20.385397      19.130095      1.2553018     -1.5285551      17969.694    
    900000   0.90923438     0.0023323615  -0.0014196875   20.266681      18.916468      1.3502131     -1.5499824      17994.814    
    901000   0.98858969     0.0023323615  -3.8162715e-06  20.215254      18.747199      1.4680557     -1.8457515      17862.442    
    902000   0.93942495     0.0023323615  -0.0021647909   20.643279      19.248233      1.3950461     -1.3693133      18006.241    
    903000   0.95941996     0.0023323615   0.0029020187   20.250229      18.825491      1.4247386     -1.7144884      18122.122    
    904000   0.98654781     0.0023323615  -0.0035902341   20.42958       18.964556      1.4650235     -1.4710289      18042.604    
    905000   0.84290699     0.0023323615  -0.0028567515   20.348239      19.096522      1.2517169     -1.4307478      18084.451    
    906000   1.1018148      0.0023323615   0.0041028463   20.553862      18.917667      1.636195      -1.5113267      18054.843    
    907000   0.96772737     0.0023323615   0.0039546925   20.404427      18.967351      1.4370751     -1.5402461      18141.634    
    908000   1.1250283      0.0023323615   0.0014599506   20.526787      18.85612       1.670667      -1.7113533      17964.037    
    909000   0.93943481     0.0023323615   0.00053332946  20.122797      18.727736      1.3950607     -1.7810835      17898.673    
    910000   0.96600808     0.0023323615   5.4109074e-05  20.641735      19.207213      1.434522      -1.3950013      18112.493    
    911000   0.98152134     0.0023323615   0.001902769    20.311343      18.853784      1.4575592     -1.6872365      18070.657    
    912000   1.0304777      0.0023323615   0.0032484223   20.211029      18.680769      1.5302593     -1.6951401      18046.33     
    913000   0.88071438     0.0023323615  -0.0011237631   20.426755      19.118894      1.3078609     -1.4469266      18099.175    
    914000   0.97585517     0.0023323615  -0.0054584879   20.510171      19.061026      1.4491449     -1.4968925      18193.286    
    915000   0.90828353     0.0023323615   0.0043481642   20.342212      18.993411      1.348801      -1.5594367      18181.538    
    916000   0.96513247     0.0023323615  -0.0022487158   20.380864      18.947642      1.4332217     -1.6240215      18153.249    
    917000   1.0399734      0.0023323615   0.0031862786   20.604428      19.060068      1.5443605     -1.6168309      18217.064    
    918000   0.94493143     0.0023323615  -0.0035149161   20.486215      19.082991      1.4032232     -1.3987825      18138.12     
    919000   1.0020497      0.0023323615   0.0031052181   20.346477      18.858434      1.4880438     -1.6142049      18153.681    
    920000   1.1199903      0.0023323615   0.0024715623   20.429618      18.766432      1.6631857     -1.7189999      17930.389    
    921000   0.99032336     0.0023323615  -0.0038316421   20.44104       18.97041       1.4706302     -1.6538566      18054.762    
    922000   0.88826911     0.0023323615   0.0019667143   19.922918      18.603839      1.3190796     -1.8001413      17990.73     
    923000   1.0656991      0.0023323615   0.00017212216  20.310205      18.727642      1.5825632     -1.9110416      18054.406    
    924000   1.0180551      0.0023323615   0.0010439683   20.496519      18.984707      1.5118119     -1.5654253      18167.701    
    925000   0.91462158     0.0023323615  -0.0036484276   20.256172      18.897959      1.358213      -1.6410394      18244.395    
    926000   0.97450034     0.0023323615  -0.001001447    20.131914      18.684781      1.447133      -1.7808228      18064.28     
    927000   1.0159768      0.0023323615  -0.001725472    20.316113      18.807388      1.5087255     -1.6860919      18083.393    
    928000   1.1617561      0.0023323615  -0.002595848    20.724184      18.998976      1.7252078     -1.5798293      18079.177    
    929000   0.99413038     0.0023323615  -0.0038135951   20.489729      19.013446      1.4762836     -1.5728272      17907.671    
    930000   0.97472809     0.0023323615  -0.00073125766  20.102025      18.654554      1.4474712     -1.9408019      18010.533    
    931000   0.94057595     0.0023323615   0.0016590909   20.44126       19.044505      1.3967553     -1.4808796      18142.644    
    932000   1.0094596      0.0023323615   0.0029728829   20.360255      18.861207      1.4990474     -1.5897209      17973.052    
    933000   1.1488439      0.0023323615  -0.0022437242   20.684932      18.978899      1.7060332     -1.7430568      17991.185    
    934000   0.8643008      0.0023323615   0.0015026887   20.389597      19.10611       1.2834867     -1.5031004      17927.577    
    935000   1.1340357      0.0023323615  -0.0027430731   20.700824      19.016781      1.684043      -1.4897528      17965.253    
    936000   0.98009201     0.0023323615   7.1462828e-05  20.254339      18.798902      1.4554366     -1.659765       17953.468    
    937000   0.95076659     0.0023323615   0.00050022073  20.174035      18.762147      1.4118884     -1.8234871      17955.561    
    938000   0.9715779      0.0023323615  -0.0013490145   20.215854      18.773061      1.4427932     -1.759692       18062.044    
    939000   0.99283079     0.0023323615  -0.0014181952   20.331759      18.857405      1.4743537     -1.7405629      17945.969    
    940000   0.99056249     0.0023323615  -0.002677242    20.118963      18.647977      1.4709853     -1.8536851      18023.46     
    941000   1.0610772      0.0023323615  -0.0013490538   20.503763      18.928063      1.5756997     -1.6616506      18026.523    
    942000   1.0217658      0.0023323615  -0.0027557431   20.485714      18.968392      1.5173222     -1.5398947      18297.436    
    943000   1.1076831      0.0023323615   0.00024059941  20.563572      18.918663      1.6449095     -1.4819083      18302.002    
    944000   0.86951082     0.0023323615   0.0006800469   19.979849      18.688626      1.2912236     -1.7243768      18494.867    
    945000   0.98256635     0.0023323615   0.0010130197   20.500322      19.041211      1.459111      -1.5815071      18222.159    
    946000   1.0549414      0.0023323615  -0.0010029409   20.648673      19.082085      1.566588      -1.5474021      18108.389    
    947000   0.96968903     0.0023323615  -0.001949468    20.084553      18.644564      1.4399882     -2.022072       17932.421    
    948000   0.94351747     0.0023323615   0.0045295454   20.139347      18.738224      1.4011234     -1.7197451      17960.1      
    949000   1.0824399      0.0023323615   0.0028235698   20.416799      18.809376      1.6074232     -1.6638617      17935.27     
    950000   1.129656       0.0023323615  -0.0015867744   20.436831      18.759292      1.6775391     -1.7141239      18137.652    
    951000   1.0134903      0.0023323615  -0.005129317    20.299577      18.794544      1.5050331     -1.6945472      18014.395    
    952000   0.99781436     0.0023323615   0.0026996224   20.023139      18.541385      1.4817543     -1.8183341      18052.195    
    953000   1.0563484      0.0023323615   0.00039217305  20.481677      18.912999      1.5686774     -1.6531621      18010.435    
    954000   0.83070695     0.0023323615  -0.0057811504   19.913791      18.680191      1.2335998     -1.8835357      17911.042    
    955000   0.99321723     0.0023323615   0.00063586066  20.487509      19.012581      1.4749276     -1.6019864      18002.915    
    956000   0.8081156      0.0023323615   0.0033027247   20.290178      19.090126      1.2000517     -1.5241996      18215.784    
    957000   1.0974969      0.0023323615  -0.0006257908   20.441685      18.811902      1.6297829     -1.7354277      17909.219    
    958000   1.024313       0.0023323615   0.00049022725  20.500234      18.979129      1.5211049     -1.5595135      17932.605    
    959000   1.0182328      0.0023323615   0.0046893433   20.721234      19.209158      1.5120758     -1.3900149      18284.193    
    960000   1.0547985      0.0023323615   0.0010210013   20.500697      18.934321      1.5663758     -1.6373804      18225.41     
    961000   0.99036488     0.0023323615   0.00063968751  20.438678      18.967986      1.4706918     -1.5956544      17875.481    
    962000   1.0056103      0.0023323615  -9.3606217e-05  19.941189      18.447858      1.4933313     -1.9478241      17995.826    
    963000   1.05515        0.0023323615   0.0003021732   20.442838      18.87594       1.5668977     -1.6697309      18034.829    
    964000   0.92805909     0.0023323615   0.0005363569   20.225429      18.847261      1.3781678     -1.6523072      18104.251    
    965000   1.0207428      0.0023323615  -0.0016818624   20.444318      18.928515      1.515803      -1.5693402      18213.055    
    966000   1.0443814      0.0023323615   0.00096779668  20.338321      18.787415      1.5509063     -1.713797       18189.403    
    967000   0.97773192     0.0023323615  -0.0014423138   20.4457        18.993768      1.4519319     -1.4072587      18226.358    
    968000   0.9831162      0.0023323615   0.0033663731   20.195389      18.735462      1.4599276     -1.7749405      18153.483    
    969000   1.0573168      0.0023323615  -0.0037440741   20.448438      18.878323      1.5701154     -1.7350528      18174.916    
    970000   0.94530915     0.0023323615  -0.0011605951   20.217423      18.813638      1.4037841     -1.6786848      18103.603    
    971000   0.9678082      0.0023323615   0.0029143573   20.308528      18.871333      1.4371952     -1.6186426      18064.542    
    972000   0.94247983     0.0023323615   0.0028552424   20.372128      18.972546      1.3995825     -1.5139206      18028.79     
    973000   0.99363464     0.0023323615   0.0023871942   20.372972      18.897425      1.4755474     -1.5764092      18062.606    
    974000   1.0637588      0.0023323615  -0.0035107084   20.4304        18.850718      1.5796818     -1.761412       17959.047    
    975000   0.9481946      0.0023323615   0.002646781    20.367824      18.959755      1.408069      -1.6658246      17961.196    
    976000   0.94092986     0.0023323615  -0.00098106772  20.171826      18.774545      1.3972808     -1.6864147      18084.405    
    977000   0.96287138     0.0023323615  -0.0012148256   20.437421      19.007557      1.429864      -1.5317614      18153.473    
    978000   1.0187918      0.0023323615   0.0037447575   20.539654      19.026748      1.5129059     -1.4296347      18088.243    
    979000   1.0067162      0.0023323615  -0.0026483289   20.713478      19.218504      1.4949735     -1.4495404      18101.41     
    980000   1.0450543      0.0023323615  -0.0013882454   20.614094      19.062188      1.5519056     -1.5030942      18129.492    
    981000   0.89516236     0.0023323615  -0.0009469533   20.218632      18.889316      1.3293161     -1.5989189      17875.58     
    982000   1.0868067      0.0023323615  -0.0023330062   20.782142      19.168234      1.613908      -1.4615448      17987.972    
    983000   1.0316286      0.0023323615  -0.00079670458  20.604351      19.072382      1.5319685     -1.4685628      18175.217    
    984000   0.97708172     0.0023323615  -0.0018092889   20.366847      18.915881      1.4509664     -1.6181597      18113.752    
    985000   1.0127874      0.0023323615   0.0026219511   20.23723       18.733241      1.5039892     -1.8054394      17815.959    
    986000   0.80890977     0.0023323615   0.00022737867  19.976557      18.775326      1.201231      -1.7710464      18008.964    
    987000   0.98404967     0.0023323615  -0.0010608883   20.25064       18.789326      1.4613138     -1.6811735      17880.034    
    988000   1.114263       0.0023323615   0.0043368503   20.627957      18.973276      1.6546806     -1.512733       18213.553    
    989000   0.91752104     0.0023323615  -0.003613312    20.225987      18.863468      1.3625187     -1.6451381      18028.35     
    990000   0.88439243     0.0023323615  -0.00086661382  20.439005      19.125683      1.3133228     -1.4195056      18156.234    
    991000   1.0390952      0.0023323615   0.0052461427   20.684878      19.141822      1.5430564     -1.4661055      18268.902    
    992000   0.97590293     0.0023323615   0.0003873262   19.999563      18.550347      1.4492158     -1.8251165      18194.085    
    993000   0.91810305     0.0023323615   0.0021798477   20.122396      18.759013      1.363383      -1.7456581      17878.094    
    994000   0.95765773     0.0023323615   0.002116685    20.308654      18.886532      1.4221217     -1.6323909      17966.459    
    995000   0.92695892     0.0023323615   0.0045673657   20.284773      18.908239      1.376534      -1.6934071      18019.715    
    996000   0.99790438     0.0023323615   0.0017313994   20.189636      18.707748      1.481888      -1.7866107      18071.662    
    997000   1.002087       0.0023323615   0.0027451297   20.388684      18.900584      1.4880991     -1.5963786      18027.562    
    998000   1.1693193      0.0023323615   0.00048743071  20.428485      18.692046      1.7364391     -1.8771765      18038.574    
    999000   0.9955353      0.0023323615  -0.0035717608   20.349965      18.871595      1.4783699     -1.7415698      17973.324    
   1000000   0.87701181     0.0023323615  -0.0005227097   20.217232      18.91487       1.3023625     -1.5125534      18263.778    
Loop time of 55.0754 on 1 procs for 1000000 steps with 100 atoms

Performance: 7843795.043 tau/day, 18156.933 timesteps/s
99.4% CPU use with 1 MPI tasks x 1 OpenMP threads

MPI task timing breakdown:
Section |  min time  |  avg time  |  max time  |%varavg| %total
---------------------------------------------------------------
Pair    | 46.127     | 46.127     | 46.127     |   0.0 | 83.75
Bond    | 1.2635     | 1.2635     | 1.2635     |   0.0 |  2.29
Neigh   | 3.8008     | 3.8008     | 3.8008     |   0.0 |  6.90
Comm    | 1.3774     | 1.3774     | 1.3774     |   0.0 |  2.50
Output  | 0.21276    | 0.21276    | 0.21276    |   0.0 |  0.39
Modify  | 1.9413     | 1.9413     | 1.9413     |   0.0 |  3.52
Other   |            | 0.3525     |            |       |  0.64

Nlocal:            100 ave         100 max         100 min
Histogram: 1 0 0 0 0 0 0 0 0 0
Nghost:            306 ave         306 max         306 min
Histogram: 1 0 0 0 0 0 0 0 0 0
Neighs:           4851 ave        4851 max        4851 min
Histogram: 1 0 0 0 0 0 0 0 0 0

Total # of neighbors = 4851
Ave neighs/atom = 48.51
Ave special neighs/atom = 1.98
Neighbor list builds = 97826
Dangerous builds = 79429

write_data      ${outputfile_assembled} nofix nocoeff
write_data      7_assembled.data nofix nocoeff
System init for write_data ...
Generated 0 of 6 mixed pair_coeff terms from geometric mixing rule

Total wall time: 0:00:56
