LAMMPS (23 Jun 2022 - Update 1)
OMP_NUM_THREADS environment is not set. Defaulting to 1 thread. (src/comm.cpp:98)
  using 1 OpenMP thread(s) per MPI task


variable        runtime equal 1000000
variable		subsample_rate equal 1000

variable		outputfile_created string '3_created.data'
variable		outputfile_relaxed string '5_relaxed.data'
variable		outputfile_selfasb string '6_a_self_assemble.lammpstrj'
variable		outputfile_trajlin string '6_b_trajlin.data'
variable		outputfile_assembled string '7_assembled.data'

units           lj
atom_style      full
dimension       3
boundary        p p p
timestep        0.005

read_data       ${outputfile_created}
read_data       3_created.data
Reading data file ...
  orthogonal box = (0 0 0) to (35 35 35)
  1 by 1 by 1 MPI processor grid
  reading atoms ...
  100 atoms
  reading velocities ...
  100 velocities
  scanning bonds ...
  1 = max bonds/atom
  reading bonds ...
  99 bonds
Finding 1-2 1-3 1-4 neighbors ...
  special bond factors lj:    0        0        0       
  special bond factors coul:  0        0        0       
     2 = max # of 1-2 neighbors
     2 = max # of 1-3 neighbors
     4 = max # of 1-4 neighbors
     6 = max # of special neighbors
  special bonds CPU = 0.000 seconds
  read_data CPU = 0.012 seconds

bond_style      fene
bond_coeff      * 30.0 1.5 1.0 1.0
special_bonds   fene
Finding 1-2 1-3 1-4 neighbors ...
  special bond factors lj:    0        1        1       
  special bond factors coul:  0        1        1       
     2 = max # of 1-2 neighbors
     6 = max # of special neighbors
  special bonds CPU = 0.000 seconds

variable        Temp equal 1.0
variable        velSeed equal 926458

velocity        all create ${Temp} ${velSeed}
velocity        all create 1 ${velSeed}
velocity        all create 1 926458

### Output
thermo_style    custom step temp density press etotal pe ke epair spcpu
thermo          1000

###########################################################################
# Soft relaxation (to remove overlaps of particles)
######################################################################

pair_style      soft 1.0
pair_coeff      * * 0.0
variable        prefactor equal ramp(0,300)
fix             rampSoft all adapt 1 pair soft a * * v_prefactor

minimize        0.0 1.0e-8 1000 100000
WARNING: Using 'neigh_modify every 1 delay 0 check yes' setting during minimization (src/min.cpp:187)
Generated 0 of 6 mixed pair_coeff terms from geometric mixing rule
Neighbor list info ...
  update every 1 steps, delay 0 steps, check yes
  max neighbors/atom: 2000, page size: 100000
  master list distance cutoff = 1.3
  ghost atom cutoff = 1.3
  binsize = 0.65, bins = 54 54 54
  1 neighbor lists, perpetual/occasional/extra = 1 0 0
  (1) pair soft, perpetual
      attributes: half, newton on
      pair build: half/bin/newton
      stencil: half/bin/3d
      bin: standard
WARNING: Communication cutoff 1.3 is shorter than a bond length based estimate of 1.7550000000000001. This may lead to errors. (src/comm.cpp:727)
Per MPI rank memory allocation (min/avg/max) = 8.346 | 8.346 | 8.346 Mbytes
   Step          Temp         Density         Press          TotEng         PotEng         KinEng         E_pair         S/CPU     
         0   1              0.0023323615  -0.0039617958   21.524174      20.039174      1.485          0              0            
       362   1              0.0023323615   0.0023090379   21.485548      20.000548      1.485          0              68199.202    
Loop time of 0.00531074 on 1 procs for 362 steps with 100 atoms

97.5% CPU use with 1 MPI tasks x 1 OpenMP threads

Minimization stats:
  Stopping criterion = force tolerance
  Energy initial, next-to-last, final = 
      20.0391741078675   20.0005480767337   20.0005480767337
  Force two-norm initial, final = 11.878422 7.9509778e-09
  Force max component initial, final = 6.6117807 1.3572772e-09
  Final line search alpha, max atom move = 1 1.3572772e-09
  Iterations, force evaluations = 362 738

MPI task timing breakdown:
Section |  min time  |  avg time  |  max time  |%varavg| %total
---------------------------------------------------------------
Pair    | 0.00021501 | 0.00021501 | 0.00021501 |   0.0 |  4.05
Bond    | 0.0023351  | 0.0023351  | 0.0023351  |   0.0 | 43.97
Neigh   | 0.0015928  | 0.0015928  | 0.0015928  |   0.0 | 29.99
Comm    | 0.00018833 | 0.00018833 | 0.00018833 |   0.0 |  3.55
Output  | 0          | 0          | 0          |   0.0 |  0.00
Modify  | 0          | 0          | 0          |   0.0 |  0.00
Other   |            | 0.0009795  |            |       | 18.44

Nlocal:            100 ave         100 max         100 min
Histogram: 1 0 0 0 0 0 0 0 0 0
Nghost:             20 ave          20 max          20 min
Histogram: 1 0 0 0 0 0 0 0 0 0
Neighs:              0 ave           0 max           0 min
Histogram: 1 0 0 0 0 0 0 0 0 0

Total # of neighbors = 0
Ave neighs/atom = 0
Ave special neighs/atom = 1.98
Neighbor list builds = 17
Dangerous builds = 0

fix             nvtSoft all nvt temp ${Temp} ${Temp} 0.5
fix             nvtSoft all nvt temp 1 ${Temp} 0.5
fix             nvtSoft all nvt temp 1 1 0.5
run             100000
Generated 0 of 6 mixed pair_coeff terms from geometric mixing rule
WARNING: Communication cutoff 1.3 is shorter than a bond length based estimate of 1.7550000000000001. This may lead to errors. (src/comm.cpp:727)
Per MPI rank memory allocation (min/avg/max) = 7.221 | 7.221 | 7.221 Mbytes
   Step          Temp         Density         Press          TotEng         PotEng         KinEng         E_pair         S/CPU     
       362   1              0.0023323615   0.0023090379   21.485548      20.000548      1.485          0              0            
      1000   0.90989032     0.0023323615  -0.0021940042   21.776974      20.425787      1.3511871      0.00036425437  77896.635    
      2000   0.86546688     0.0023323615   0.0034714157   21.677128      20.39191       1.2852183      0.0025814786   77509.496    
      3000   0.98199538     0.0023323615   0.0028144228   21.866132      20.407869      1.4582631      0.0011756043   74183.608    
      4000   1.004495       0.0023323615  -0.0014058211   21.945624      20.453949      1.4916751      0.011986179    74377.086    
      5000   1.1222705      0.0023323615   0.0044495116   21.986385      20.319813      1.6665718      0.0050317639   74271.929    
      6000   1.0538243      0.0023323615   0.0023957538   21.985713      20.420784      1.564929       0.012100514    74492.879    
      7000   1.0210598      0.0023323615  -0.00038820026  21.904665      20.388391      1.5162738      0              75948.708    
      8000   0.94819751     0.0023323615   0.0024943091   21.747889      20.339816      1.4080733      0              74501.22     
      9000   0.92364502     0.0023323615   0.0020053029   21.724166      20.352554      1.3716129      1.7780894e-05  74943.187    
     10000   0.86685188     0.0023323615   0.00078277366  21.644879      20.357604      1.287275       0.0098636418   72980.757    
     11000   1.0057103      0.0023323615   0.00010113276  21.8558        20.362321      1.4934798      0.020705341    75728.988    
     12000   0.97901664     0.0023323615  -0.0026996968   21.871206      20.417366      1.4538397      0.0052928539   75778.093    
     13000   0.97718436     0.0023323615  -6.1641422e-06  21.963706      20.512587      1.4511188      0.025022446    75415.777    
     14000   1.0530014      0.0023323615  -0.0009993112   21.947994      20.384287      1.5637071      0.0020860456   74646.363    
     15000   0.99094527     0.0023323615   0.0011068478   21.895146      20.423592      1.4715537      0.0015091113   75721.465    
     16000   0.91285091     0.0023323615  -0.00025424173  21.87524       20.519657      1.3555836      0.0047853639   75434.305    
     17000   0.82806978     0.0023323615  -0.00054698156  21.701984      20.472301      1.2296836      0              75194.031    
     18000   1.043278       0.0023323615  -6.6143919e-05  22.003299      20.454031      1.5492679      0.0034319132   75657.066    
     19000   1.0879249      0.0023323615  -0.0017804642   21.998985      20.383416      1.6155685      0.015376175    74534.154    
     20000   1.1144506      0.0023323615   0.0025198298   22.190904      20.535944      1.6549592      0              75771.536    
     21000   1.0427751      0.0023323615   0.0011345349   22.099492      20.550971      1.548521       0.00040047813  76199.823    
     22000   1.0586695      0.0023323615   0.0017882747   22.05673       20.484606      1.5721242      0              75445.193    
     23000   1.0058426      0.0023323615  -0.0055245362   21.954628      20.460951      1.4936763      0.0027619031   74599.832    
     24000   0.98273442     0.0023323615   0.0015147357   21.862067      20.402707      1.4593606      0              74549.573    
     25000   0.95835343     0.0023323615   0.0017808774   21.937761      20.514606      1.4231548      0.00020839942  74935.421    
     26000   0.93993778     0.0023323615  -0.0021777292   21.884849      20.489042      1.3958076      0.0088889834   75843.215    
     27000   0.9308188      0.0023323615  -0.00011239942  21.842252      20.459986      1.3822659      0.021612409    74076.033    
     28000   1.0149581      0.0023323615   0.0041996387   21.906846      20.399633      1.5072129      0.0064059022   75691.604    
     29000   0.92841138     0.0023323615  -2.5398808e-05  21.987185      20.608494      1.3786909      0.0046112484   75562.738    
     30000   1.021043       0.0023323615   0.001589158    22.097958      20.581709      1.5162489      0.016799508    73292.053    
     31000   1.0465985      0.0023323615  -0.0021744286   22.037917      20.483718      1.5541987      0.0057879149   75783.273    
     32000   0.98907108     0.0023323615  -0.0015558606   22.044089      20.575318      1.4687705      0.009448173    75558.73     
     33000   1.0918536      0.0023323615  -0.0025643847   22.039275      20.417873      1.6214025      0              74686.52     
     34000   0.99801543     0.0023323615   0.0016279766   21.932339      20.450286      1.4820529      0.017384617    77130.897    
     35000   1.0352271      0.0023323615  -0.0052971711   22.076004      20.538692      1.5373122      0.00010473809  75396.012    
     36000   1.1141579      0.0023323615  -0.00093279925  22.222491      20.567966      1.6545245      0.00033678641  76494.028    
     37000   1.0369415      0.0023323615   0.00013065175  22.217841      20.677983      1.5398581      0.013788831    75587.915    
     38000   1.0515596      0.0023323615   0.0021717558   22.070766      20.5092        1.561566       0.0067894678   75955.238    
     39000   1.0238495      0.0023323615   0.00026414509  22.040141      20.519725      1.5204165      0.00044464649  74505.561    
     40000   1.0749111      0.0023323615  -0.0026849368   22.039327      20.443084      1.596243       0.012651334    73557.742    
     41000   0.99070886     0.0023323615  -0.0030385564   22.03241       20.561207      1.4712027      0.00092855646  76636.991    
     42000   0.95315224     0.0023323615   0.0019788197   21.965263      20.549832      1.4154311      0.020233689    73891.278    
     43000   1.0644183      0.0023323615  -0.0011168725   22.287172      20.706511      1.5806611      0.039694129    75112.378    
     44000   1.0253747      0.0023323615  -0.006676522    22.066233      20.543552      1.5226814      0              74351.211    
     45000   0.94179556     0.0023323615  -0.0047206018   21.970644      20.572077      1.3985664      0.019869988    74880.274    
     46000   1.0083495      0.0023323615  -0.0017646918   21.972114      20.474715      1.497399       0.00026040605  74989.299    
     47000   0.98767959     0.0023323615  -0.00080218158  22.091674      20.62497       1.4667042      0.024266258    74922.884    
     48000   1.1473449      0.0023323615  -0.0025885687   22.080512      20.376705      1.7038072      0.00065962995  75446.73     
     49000   1.0679312      0.0023323615   0.0017688272   21.970482      20.384604      1.5858779      0.014142422    76199.359    
     50000   0.9581935      0.0023323615   0.0014398836   21.955202      20.532284      1.4229173      0.0055011948   75930.686    
     51000   1.0215759      0.0023323615  -0.00093292688  21.934681      20.41764       1.5170402      0              75832.61     
     52000   0.98079591     0.0023323615   0.0040701936   21.977374      20.520892      1.4564819      0.0020862422   76099.146    
     53000   1.0090927      0.0023323615   0.0013324753   22.095438      20.596935      1.4985027      0              75227.184    
     54000   0.97519627     0.0023323615   0.0013260734   22.070151      20.621984      1.4481665      0.026885444    76345.476    
     55000   1.1805087      0.0023323615  -0.001586238    22.424088      20.671033      1.7530554      0.024690954    76162.269    
     56000   0.98387121     0.0023323615   0.0037155145   22.104425      20.643376      1.4610487      0.01435493     75672.267    
     57000   1.0723812      0.0023323615  -0.0037916262   22.122726      20.53024       1.592486       0.013635549    76087.021    
     58000   1.0152349      0.0023323615   0.00021908047  22.082827      20.575203      1.5076238      0.00077375639  75342.632    
     59000   1.1424502      0.0023323615  -0.0052108657   22.30072       20.604182      1.6965385      0.013308184    76683.03     
     60000   1.0359703      0.0023323615  -0.00097887545  22.188218      20.649802      1.538416       0.00011346294  75049.067    
     61000   1.1646839      0.0023323615  -0.002085017    22.239945      20.51039       1.7295556      0.012918477    77106.644    
     62000   1.101836       0.0023323615   0.0010338878   22.171386      20.53516       1.6362265      0.001396566    76102.8      
     63000   0.96616435     0.0023323615   0.00097550571  21.903821      20.469067      1.4347541      0.013027663    77552.252    
     64000   1.0068907      0.0023323615  -0.0020278726   22.061652      20.566419      1.4952327      0.013750276    75953.392    
     65000   0.98723233     0.0023323615   0.0022441476   22.031073      20.565033      1.46604        0.0066686189   76376.211    
     66000   1.0273881      0.0023323615  -0.0003515278   22.183579      20.657908      1.5256713      0              74688.863    
     67000   0.96528212     0.0023323615  -0.00014822656  21.9396        20.506156      1.4334439      0.010365557    76725.532    
     68000   1.069702       0.0023323615   9.4754668e-05  22.081119      20.492611      1.5885075      0.00049153926  73871.207    
     69000   1.1229502      0.0023323615   0.0011504079   22.200329      20.532748      1.6675811      0.0068454249   76518.02     
     70000   1.0062775      0.0023323615  -0.00085311964  22.094021      20.599699      1.4943221      0.013222355    75003.726    
     71000   1.0906935      0.0023323615   0.00015260357  22.145362      20.525682      1.6196798      0.018338513    75493.811    
     72000   1.010401       0.0023323615  -6.0487182e-06  22.154105      20.653659      1.5004455      0.0013793953   74529.421    
     73000   1.1177599      0.0023323615  -0.0034084797   22.254435      20.594562      1.6598735      0.00011231735  77034.576    
     74000   0.9768019      0.0023323615   0.00016143893  22.07312       20.622569      1.4505508      0.0084515956   75115.153    
     75000   1.1360996      0.0023323615   0.002159116    22.161595      20.474487      1.6871079      0.0089909162   76075.19     
     76000   0.97379329     0.0023323615  -0.00068458621  21.988928      20.542845      1.446083       0              74981.41     
     77000   0.94876793     0.0023323615  -0.0016073976   21.923496      20.514575      1.4089204      0.017745108    75205.703    
     78000   0.83947996     0.0023323615  -0.00062768559  21.726727      20.480099      1.2466277      0.0054510099   75780.626    
     79000   1.0090614      0.0023323615  -0.00080262643  22.068192      20.569736      1.4984562      0.00023011166  76706.723    
     80000   1.1217643      0.0023323615  -0.0038177864   22.367902      20.702082      1.66582        0.032902439    75900.942    
     81000   1.0240158      0.0023323615   0.00023547123  22.031597      20.510933      1.5206635      0.0068767308   75203.384    
     82000   1.003236       0.0023323615  -0.0022802982   21.894199      20.404393      1.4898055      0.019136282    74448.705    
     83000   1.0554159      0.0023323615   0.004011718    22.104562      20.537269      1.5672927      0.0080869707   74063.826    
     84000   0.83527346     0.0023323615  -0.0034122221   21.874648      20.634267      1.2403811      0.0030083664   75322.043    
     85000   1.036002       0.0023323615   0.0013573923   21.962923      20.42446       1.5384629      0.015709144    75832.041    
     86000   0.9432002      0.0023323615  -0.0032183248   21.913588      20.512936      1.4006523      0.013730309    75855.142    
     87000   0.95566008     0.0023323615  -0.00049614223  21.91653       20.497375      1.4191552      0.0035862035   75236.257    
     88000   0.93373351     0.0023323615  -0.00097093893  21.870485      20.483891      1.3865943      0.0018212145   74890.11     
     89000   0.9684944      0.0023323615  -0.00047342045  21.973429      20.535215      1.4382142      0.00087524744  74722.416    
     90000   0.98293324     0.0023323615  -0.0032204602   22.050919      20.591263      1.4596559      0.015353933    76504.761    
     91000   1.0832827      0.0023323615   0.0048517083   22.11977       20.511095      1.6086749      0.0052867789   77525.089    
     92000   0.85899662     0.0023323615  -0.0013049519   21.765697      20.490087      1.27561        0.0024124001   76420.827    
     93000   0.96176266     0.0023323615  -4.4223672e-05  21.874222      20.446004      1.4282176      0.0045653365   77194.785    
     94000   0.96019503     0.0023323615   0.00024459347  21.944954      20.519064      1.4258896      3.8053462e-05  76455.768    
     95000   0.94702149     0.0023323615  -0.0033658915   21.86315       20.456823      1.4063269      0              76934.173    
     96000   0.91119348     0.0023323615  -0.0013197298   21.825018      20.471896      1.3531223      0.00043282989  75724.108    
     97000   1.0016687      0.0023323615  -0.0019514304   22.013024      20.525546      1.487478       0.0048369955   75237.734    
     98000   1.02143        0.0023323615  -0.0057874974   22.177965      20.661142      1.5168235      0              74075.643    
     99000   1.032786       0.0023323615   0.0018228259   21.975336      20.441649      1.5336871      7.1595851e-05  77131.849    
    100000   1.0594928      0.0023323615   0.0036169719   22.011024      20.437677      1.5733468      0.00032948157  75621.989    
    100362   1.1904942      0.0023323615  -0.00089755607  22.316856      20.548972      1.7678839      0.00063845255  75066.341    
Loop time of 1.32459 on 1 procs for 100000 steps with 100 atoms

Performance: 32613980.555 tau/day, 75495.325 timesteps/s
99.3% CPU use with 1 MPI tasks x 1 OpenMP threads

MPI task timing breakdown:
Section |  min time  |  avg time  |  max time  |%varavg| %total
---------------------------------------------------------------
Pair    | 0.049449   | 0.049449   | 0.049449   |   0.0 |  3.73
Bond    | 0.12646    | 0.12646    | 0.12646    |   0.0 |  9.55
Neigh   | 0.80418    | 0.80418    | 0.80418    |   0.0 | 60.71
Comm    | 0.056683   | 0.056683   | 0.056683   |   0.0 |  4.28
Output  | 0.001188   | 0.001188   | 0.001188   |   0.0 |  0.09
Modify  | 0.25159    | 0.25159    | 0.25159    |   0.0 | 18.99
Other   |            | 0.03504    |            |       |  2.65

Nlocal:            100 ave         100 max         100 min
Histogram: 1 0 0 0 0 0 0 0 0 0
Nghost:             60 ave          60 max          60 min
Histogram: 1 0 0 0 0 0 0 0 0 0
Neighs:             36 ave          36 max          36 min
Histogram: 1 0 0 0 0 0 0 0 0 0

Total # of neighbors = 36
Ave neighs/atom = 0.36
Ave special neighs/atom = 1.98
Neighbor list builds = 9821
Dangerous builds = 8265
unfix           nvtSoft
unfix           rampSoft
reset_timestep  0

write_data      ${outputfile_relaxed}
write_data      5_relaxed.data
System init for write_data ...
Generated 0 of 6 mixed pair_coeff terms from geometric mixing rule
WARNING: Communication cutoff 1.3 is shorter than a bond length based estimate of 1.7550000000000001. This may lead to errors. (src/comm.cpp:727)
WARNING: Not all mixed pair coeffs generated from mixing. Use write_data with 'pair ij' option to store all pair coeffs. (src/write_data.cpp:309)

###########################################################################
# Full LJ with Coulomb
######################################################################

# Cutoffs and parameters:
# - Values: Marcel Verkade's Bachelor Thesis
# - Mapping to atom groups: Patrick Onck's paper
# - 1: aliphatic, 2: aromatic, 3: anion, 4: cation
# pair_style	lj/cut/coul/cut <lj_cut_global> <coul_cut_global>
# pair_coeff	<type_1>  <type_2>  <eps>  <sigma>  <r_cut_lj>  <r_cut_coul>

# Problem: Onck's model is much more complex, and Marcel has no sigma reported
# Using sigma=1 randomly

variable		glob_ljeps equal 1.0
variable		glob_ljsig 	equal 1.0
variable		glob_coulcut equal 10.0
variable		att_ljcut equal 2.50
variable		rep_ljcut equal 1.12

pair_style		lj/cut/coul/cut 						${att_ljcut} 	${glob_coulcut}
pair_style		lj/cut/coul/cut 						2.5 	${glob_coulcut}
pair_style		lj/cut/coul/cut 						2.5 	10
pair_coeff		1 1 	${glob_ljeps} 	${glob_ljsig}	${att_ljcut} 	${glob_coulcut}
pair_coeff		1 1 	1 	${glob_ljsig}	${att_ljcut} 	${glob_coulcut}
pair_coeff		1 1 	1 	1	${att_ljcut} 	${glob_coulcut}
pair_coeff		1 1 	1 	1	2.5 	${glob_coulcut}
pair_coeff		1 1 	1 	1	2.5 	10
pair_coeff		1 2 	${glob_ljeps} 	${glob_ljsig}	${att_ljcut} 	${glob_coulcut}
pair_coeff		1 2 	1 	${glob_ljsig}	${att_ljcut} 	${glob_coulcut}
pair_coeff		1 2 	1 	1	${att_ljcut} 	${glob_coulcut}
pair_coeff		1 2 	1 	1	2.5 	${glob_coulcut}
pair_coeff		1 2 	1 	1	2.5 	10
pair_coeff		1 3 	${glob_ljeps} 	${glob_ljsig}	${rep_ljcut} 	${glob_coulcut}
pair_coeff		1 3 	1 	${glob_ljsig}	${rep_ljcut} 	${glob_coulcut}
pair_coeff		1 3 	1 	1	${rep_ljcut} 	${glob_coulcut}
pair_coeff		1 3 	1 	1	1.12 	${glob_coulcut}
pair_coeff		1 3 	1 	1	1.12 	10
pair_coeff		1 4 	${glob_ljeps} 	${glob_ljsig}	${rep_ljcut} 	${glob_coulcut}
pair_coeff		1 4 	1 	${glob_ljsig}	${rep_ljcut} 	${glob_coulcut}
pair_coeff		1 4 	1 	1	${rep_ljcut} 	${glob_coulcut}
pair_coeff		1 4 	1 	1	1.12 	${glob_coulcut}
pair_coeff		1 4 	1 	1	1.12 	10
pair_coeff		2 2 	${glob_ljeps} 	${glob_ljsig}	${att_ljcut} 	${glob_coulcut}
pair_coeff		2 2 	1 	${glob_ljsig}	${att_ljcut} 	${glob_coulcut}
pair_coeff		2 2 	1 	1	${att_ljcut} 	${glob_coulcut}
pair_coeff		2 2 	1 	1	2.5 	${glob_coulcut}
pair_coeff		2 2 	1 	1	2.5 	10
pair_coeff		2 3 	${glob_ljeps} 	${glob_ljsig}	${rep_ljcut} 	${glob_coulcut}
pair_coeff		2 3 	1 	${glob_ljsig}	${rep_ljcut} 	${glob_coulcut}
pair_coeff		2 3 	1 	1	${rep_ljcut} 	${glob_coulcut}
pair_coeff		2 3 	1 	1	1.12 	${glob_coulcut}
pair_coeff		2 3 	1 	1	1.12 	10
pair_coeff		2 4 	${glob_ljeps} 	${glob_ljsig}	${att_ljcut} 	${glob_coulcut}
pair_coeff		2 4 	1 	${glob_ljsig}	${att_ljcut} 	${glob_coulcut}
pair_coeff		2 4 	1 	1	${att_ljcut} 	${glob_coulcut}
pair_coeff		2 4 	1 	1	2.5 	${glob_coulcut}
pair_coeff		2 4 	1 	1	2.5 	10
pair_coeff		3 3 	${glob_ljeps} 	${glob_ljsig}	${rep_ljcut} 	${glob_coulcut}
pair_coeff		3 3 	1 	${glob_ljsig}	${rep_ljcut} 	${glob_coulcut}
pair_coeff		3 3 	1 	1	${rep_ljcut} 	${glob_coulcut}
pair_coeff		3 3 	1 	1	1.12 	${glob_coulcut}
pair_coeff		3 3 	1 	1	1.12 	10
pair_coeff		3 4 	${glob_ljeps} 	${glob_ljsig}	${att_ljcut} 	${glob_coulcut}
pair_coeff		3 4 	1 	${glob_ljsig}	${att_ljcut} 	${glob_coulcut}
pair_coeff		3 4 	1 	1	${att_ljcut} 	${glob_coulcut}
pair_coeff		3 4 	1 	1	2.5 	${glob_coulcut}
pair_coeff		3 4 	1 	1	2.5 	10
pair_coeff		4 4 	${glob_ljeps} 	${glob_ljsig}	${rep_ljcut} 	${glob_coulcut}
pair_coeff		4 4 	1 	${glob_ljsig}	${rep_ljcut} 	${glob_coulcut}
pair_coeff		4 4 	1 	1	${rep_ljcut} 	${glob_coulcut}
pair_coeff		4 4 	1 	1	1.12 	${glob_coulcut}
pair_coeff		4 4 	1 	1	1.12 	10


fix             noDriftRot 	all momentum 10 linear 1 1 1 angular
fix             nvt1 		all nvt temp ${Temp} ${Temp} 0.5
fix             nvt1 		all nvt temp 1 ${Temp} 0.5
fix             nvt1 		all nvt temp 1 1 0.5

# dump          assemble 	all custom 1000 				${outputfile_selfasb} id type xu yu zu vx vy vz
dump            lindump 	all custom ${subsample_rate} 	${outputfile_trajlin} id type xu yu zu vx vy vz
dump            lindump 	all custom 1000 	${outputfile_trajlin} id type xu yu zu vx vy vz
dump            lindump 	all custom 1000 	6_b_trajlin.data id type xu yu zu vx vy vz

run             ${runtime}
run             1000000
Generated 0 of 6 mixed pair_coeff terms from geometric mixing rule
Neighbor list info ...
  update every 1 steps, delay 10 steps, check yes
  max neighbors/atom: 2000, page size: 100000
  master list distance cutoff = 10.3
  ghost atom cutoff = 10.3
  binsize = 5.15, bins = 7 7 7
  1 neighbor lists, perpetual/occasional/extra = 1 0 0
  (1) pair lj/cut/coul/cut, perpetual
      attributes: half, newton on
      pair build: half/bin/newton
      stencil: half/bin/3d
      bin: standard
Per MPI rank memory allocation (min/avg/max) = 7.712 | 7.712 | 7.712 Mbytes
   Step          Temp         Density         Press          TotEng         PotEng         KinEng         E_pair         S/CPU     
         0   1.1904942      0.0023323615  -0.0015150518   22.009653      20.241769      1.7678839     -0.30656473     0            
      1000   1.1143501      0.0023323615   0.00044452902  21.49503       19.84022       1.6548099     -0.57616502     33521.742    
      2000   1.0495303      0.0023323615  -0.00024049985  21.303974      19.745422      1.5585525     -0.72603846     31540.738    
      3000   0.94546011     0.0023323615  -0.00034374439  21.017819      19.613811      1.4040083     -0.95456384     28070.11     
      4000   1.067883       0.0023323615   0.0012122982   20.749011      19.163205      1.5858062     -1.3356578      22009.86     
      5000   1.1073731      0.0023323615  -0.0047759349   20.785146      19.140697      1.644449      -1.3621971      18867.455    
      6000   0.8458809      0.0023323615   0.00051759609  20.17619       18.920057      1.2561331     -1.5931141      18196.314    
      7000   1.0314003      0.0023323615  -0.00074866553  20.350912      18.819283      1.5316294     -1.7701149      18159.151    
      8000   0.98491084     0.0023323615  -0.00043245206  20.201829      18.739236      1.4625926     -1.7830565      18147.615    
      9000   0.99157426     0.0023323615   0.0025910747   20.074842      18.602354      1.4724878     -1.8044005      18158.186    
     10000   1.015423       0.0023323615  -0.0025957947   20.147237      18.639334      1.5079031     -1.8136595      18164.921    
     11000   0.88310518     0.0023323615   0.001616853    20.253607      18.942196      1.3114112     -1.6253632      18283.536    
     12000   0.9319501      0.0023323615   0.0002522243   20.314607      18.930661      1.3839459     -1.5344525      18426.927    
     13000   0.95496069     0.0023323615  -0.0040669859   20.175389      18.757272      1.4181166     -1.7270618      18255.123    
     14000   1.1115459      0.0023323615  -0.0031869433   20.273124      18.622479      1.6506456     -1.859326       18285.757    
     15000   0.9934493      0.0023323615  -0.00036631913  20.057166      18.581894      1.4752722     -1.9339996      18376.625    
     16000   1.0069654      0.0023323615  -0.003913376    20.377519      18.882175      1.4953436     -1.6527211      18198.314    
     17000   1.0655274      0.0023323615  -0.0016166948   19.926945      18.344637      1.5823081     -2.040647       18159.161    
     18000   0.89993987     0.0023323615  -0.0028949081   20.029057      18.692647      1.3364107     -1.750929       18173.106    
     19000   1.0601498      0.0023323615  -0.00082667822  20.204138      18.629815      1.5743225     -1.8504922      18255.587    
     20000   1.0139811      0.0023323615  -0.0011486173   20.401272      18.89551       1.5057619     -1.7030189      18234.743    
     21000   1.1066228      0.0023323615   0.0013360714   20.135468      18.492133      1.6433348     -2.0198174      18157.32     
     22000   1.090858       0.0023323615   0.00099871963  20.260339      18.640415      1.6199242     -1.8848582      18270.354    
     23000   1.0597567      0.0023323615   0.0031656135   20.159635      18.585896      1.5737387     -1.9154686      18075.972    
     24000   1.1060869      0.0023323615   0.00046456008  20.498445      18.855906      1.642539      -1.647481       18215.893    
     25000   0.98348268     0.0023323615   0.0038343049   20.267102      18.806631      1.4604718     -1.8806518      18303.683    
     26000   1.0792179      0.0023323615   0.0013241477   20.191994      18.589355      1.6026386     -1.8746098      18200.461    
     27000   1.0276298      0.0023323615   0.00020039696  20.368432      18.842402      1.5260302     -1.7176892      18172.345    
     28000   1.0824502      0.0023323615   0.0037463357   20.321664      18.714226      1.6074386     -1.7407846      18123.339    
     29000   0.96592554     0.0023323615   0.0052464878   20.013599      18.579199      1.4343994     -1.8104084      18118.947    
     30000   0.99762609     0.0023323615  -0.00066185696  20.127259      18.645784      1.4814747     -1.8538788      18175.489    
     31000   0.93170694     0.0023323615   0.0035339645   20.281641      18.898057      1.3835848     -1.7363257      18142.943    
     32000   0.94706297     0.0023323615   0.0038016223   20.122401      18.716013      1.4063885     -1.7829         18104.195    
     33000   0.8126688      0.0023323615   0.00082408762  20.052353      18.84554       1.2068132     -1.7408505      18138.196    
     34000   1.0530302      0.0023323615  -0.00047144336  20.295697      18.731947      1.5637499     -1.7646533      18190.192    
     35000   0.86116207     0.0023323615   0.0011184664   19.863294      18.584468      1.2788257     -1.9185637      18144.411    
     36000   0.97548985     0.0023323615  -0.00272383     19.956066      18.507464      1.4486024     -2.0117471      18179.663    
     37000   1.0087944      0.0023323615   0.00092944399  20.227126      18.729066      1.4980597     -1.9239247      17990.221    
     38000   1.0604925      0.0023323615   0.00027587065  20.138754      18.563923      1.5748314     -1.9234578      18123.56     
     39000   1.0693662      0.0023323615  -0.0014997146   20.531018      18.943009      1.5880089     -1.6060098      18257.945    
     40000   1.0941865      0.0023323615  -0.00097408304  20.396372      18.771505      1.6248669     -1.7163024      18316.282    
     41000   0.99382525     0.0023323615   0.00058775997  20.32749       18.851659      1.4758305     -1.6989982      18277.815    
     42000   0.83272223     0.0023323615   0.0016266678   20.074382      18.83779       1.2365925     -1.6469866      18152.449    
     43000   1.0980081      0.0023323615   0.0050722728   20.356769      18.726227      1.630542      -1.7564399      18236.915    
     44000   1.0440125      0.0023323615  -0.00021470391  20.305299      18.75494       1.5503586     -1.7825978      18105.242    
     45000   0.96937578     0.0023323615  -0.0031023587   20.444167      19.004644      1.439523      -1.7151702      17957.822    
     46000   0.88414213     0.0023323615  -0.0011219649   20.026126      18.713175      1.3129511     -1.7196954      18106.02     
     47000   1.072742       0.0023323615  -0.0031813767   20.61454       19.021518      1.5930218     -1.6907217      18189.403    
     48000   0.91901664     0.0023323615   4.5477238e-05  20.134733      18.769993      1.3647397     -1.7936514      18021.065    
     49000   0.9139659      0.0023323615   0.00035278608  20.176233      18.818994      1.3572394     -1.7208764      18223.064    
     50000   1.044315       0.0023323615   0.0019900015   20.200336      18.649528      1.5508077     -1.82783        18206.759    
     51000   0.90066493     0.0023323615   0.0011963088   19.9994        18.661912      1.3374874     -1.8158965      18229.987    
     52000   1.0439708      0.0023323615   0.0044256192   20.09131       18.541013      1.5502966     -1.9596242      18347.426    
     53000   1.0810516      0.0023323615  -0.00089385594  20.49404       18.888679      1.6053616     -1.6759469      18326.59     
     54000   0.99616264     0.0023323615   0.0037087912   20.081669      18.602367      1.4793015     -1.934942       18310.026    
     55000   1.1132581      0.0023323615  -0.00037048166  20.213876      18.560687      1.6531883     -1.977716       18319.338    
     56000   0.95092945     0.0023323615   0.0001582477   19.963499      18.551369      1.4121302     -1.8824704      18371.027    
     57000   0.94470722     0.0023323615   0.0026611708   20.117783      18.714893      1.4028902     -1.7674604      18472.543    
     58000   0.8803888      0.0023323615  -0.00079972121  19.873947      18.566569      1.3073774     -1.9749507      18568.912    
     59000   1.040888       0.0023323615  -0.0022209645   20.140539      18.59482       1.5457187     -1.9083202      18431.425    
     60000   0.96365609     0.0023323615  -0.001016003    20.173498      18.742469      1.4310293     -1.7815532      18402.045    
     61000   0.89447056     0.0023323615  -0.0023224197   20.331771      19.003482      1.3282888     -1.5810929      18379.464    
     62000   0.98650602     0.0023323615   0.00016683557  20.136404      18.671443      1.4649614     -1.7982542      18315.257    
     63000   0.89544562     0.0023323615   0.0016119892   19.999695      18.669958      1.3297367     -1.844241       18403.212    
     64000   1.1732538      0.0023323615   0.0047354675   20.475762      18.73348       1.7422818     -1.687805       18486.184    
     65000   1.0269779      0.0023323615  -0.0020044664   20.313466      18.788404      1.5250622     -1.7062964      18401.289    
     66000   0.92234177     0.0023323615   0.003269304    20.228161      18.858484      1.3696775     -1.7836734      18186.984    
     67000   1.037785       0.0023323615  -0.0045037958   20.231245      18.690135      1.5411107     -1.8581438      18209.104    
     68000   1.0052486      0.0023323615  -0.0043515792   20.442677      18.949883      1.4927942     -1.619766       18071.865    
     69000   1.1410648      0.0023323615  -0.0030307487   20.611402      18.916921      1.6944812     -1.6109569      18234.253    
     70000   0.93513546     0.0023323615   0.00015210212  20.024704      18.636028      1.3886762     -1.8000554      18269.865    
     71000   1.0364372      0.0023323615  -0.00040393451  20.225272      18.686162      1.5391093     -1.7493539      18290.298    
     72000   0.84302715     0.0023323615  -0.0030753052   19.770584      18.518688      1.2518953     -1.8580326      18279.033    
     73000   1.0456492      0.0023323615  -0.00047235542  20.420771      18.867982      1.5527891     -1.6367314      18361.277    
     74000   1.0414481      0.0023323615  -0.0039891882   20.013071      18.46652       1.5465504     -1.9787203      18312.663    
     75000   0.94203978     0.0023323615   0.0012923967   20.383506      18.984577      1.3989291     -1.6495658      18307.598    
     76000   1.2125572      0.0023323615  -0.0014615946   20.579101      18.778454      1.8006475     -1.8388393      18252.806    
     77000   1.008659       0.0023323615  -0.0031335223   20.274031      18.776172      1.4978587     -1.9774119      18162.029    
     78000   1.0237525      0.0023323615   5.5118606e-05  20.291328      18.771055      1.5202724     -1.7969537      18154.47     
     79000   0.85058571     0.0023323615   0.0023192604   19.745899      18.482779      1.2631198     -1.9854385      18246.313    
     80000   1.0680656      0.0023323615   0.002032442    20.221645      18.635568      1.5860775     -1.8922452      18195.064    
     81000   0.99845846     0.0023323615   0.002750627    20.221544      18.738833      1.4827108     -1.8203221      18252.749    
     82000   1.0615932      0.0023323615   0.00026040442  20.258857      18.682391      1.5764659     -1.8698458      18160.974    
     83000   0.88366141     0.0023323615  -0.0019131178   19.990618      18.678381      1.3122372     -1.7922729      18035.621    
     84000   0.88514019     0.0023323615  -0.0064771398   20.140552      18.826119      1.3144332     -1.8688631      18205.713    
     85000   1.0716743      0.0023323615   0.0050809314   20.17249       18.581054      1.5914364     -1.8142601      18022.543    
     86000   0.97836197     0.0023323615  -0.0007891875   20.277444      18.824577      1.4528675     -1.7478975      18067.54     
     87000   0.97483804     0.0023323615  -0.0030182051   20.139568      18.691934      1.4476345     -1.7863398      18145.978    
     88000   0.97059401     0.0023323615  -0.00085372167  19.942704      18.501372      1.4413321     -1.9691283      18093.565    
     89000   0.96389675     0.0023323615   0.0025712829   20.186672      18.755285      1.4313867     -1.8009416      18171.27     
     90000   0.89405179     0.0023323615  -0.0017912323   20.329114      19.001447      1.3276669     -1.6724289      18004.543    
     91000   0.94366684     0.0023323615  -0.00088811738  20.064654      18.663309      1.4013453     -1.8704946      18059.956    
     92000   0.9735002      0.0023323615   0.001536021    20.061483      18.615836      1.4456478     -1.8218484      18080.592    
     93000   1.0341993      0.0023323615  -0.0013973559   20.311206      18.77542       1.5357859     -1.8634092      18085.156    
     94000   0.85733547     0.0023323615  -0.0025886113   19.97688       18.703737      1.2731432     -1.9185783      17985.625    
     95000   0.94400104     0.0023323615  -0.00047502572  20.404437      19.002596      1.4018415     -1.6426742      18254.799    
     96000   0.9466933      0.0023323615  -0.001316098    20.026586      18.620746      1.4058395     -1.8062491      18075.785    
     97000   0.92256513     0.0023323615   0.0003492212   20.098688      18.728679      1.3700092     -1.8960321      18031.431    
     98000   1.0478842      0.0023323615  -0.00047111352  20.229639      18.673531      1.5561081     -1.9475672      17985.365    
     99000   0.93277389     0.0023323615  -0.00026575069  20.190949      18.80578       1.3851692     -1.7500567      18123.55     
    100000   1.0870885      0.0023323615   0.00089572076  20.405315      18.790989      1.6143264     -1.8053897      18056.437    
    101000   1.0192991      0.0023323615   0.0018211787   20.151766      18.638107      1.5136591     -1.9194551      17974.574    
    102000   0.93692325     0.0023323615  -0.00083932109  19.842255      18.450924      1.391331      -1.9654678      17973.745    
    103000   1.0788703      0.0023323615  -0.0011420226   20.175847      18.573725      1.6021225     -1.9011279      18007.817    
    104000   0.99872127     0.0023323615  -0.0016166265   20.196412      18.713311      1.4831011     -1.7496604      18228.449    
    105000   1.0079841      0.0023323615   0.0026115813   20.238086      18.741229      1.4968564     -1.8052512      18209.729    
    106000   0.90558377     0.0023323615  -0.00052380433  20.126388      18.781596      1.3447919     -1.6708814      18193.637    
    107000   1.0460529      0.0023323615   0.00048345169  20.223606      18.670218      1.5533885     -1.8242851      18000.243    
    108000   0.95249739     0.0023323615  -0.0034260537   19.983591      18.569132      1.4144586     -1.8360817      18187.05     
    109000   1.0693984      0.0023323615   0.0016931011   20.319072      18.731015      1.5880567     -1.7417621      18136.99     
    110000   1.0657052      0.0023323615  -7.4925033e-05  20.239075      18.656502      1.5825723     -1.8068043      18149.419    
    111000   1.0344142      0.0023323615   0.0031901924   20.486466      18.950361      1.536105      -1.667488       18193.787    
    112000   1.2462647      0.0023323615   0.0038454104   20.467183      18.61648       1.850703      -1.8914378      18249.142    
    113000   0.99267711     0.0023323615  -0.0033706848   20.327156      18.853031      1.4741255     -1.7402057      18193.81     
    114000   1.0356256      0.0023323615  -0.0025646267   20.136594      18.59869       1.537904      -1.8335714      18149.707    
    115000   0.96973797     0.0023323615   0.00048002853  20.202254      18.762193      1.4400609     -1.8134995      18213.906    
    116000   0.92364522     0.0023323615   0.00093096324  20.257834      18.886221      1.3716132     -1.6833591      18204.561    
    117000   0.92754722     0.0023323615  -0.0031051445   19.83128       18.453872      1.3774076     -2.0209069      18198.965    
    118000   1.1007639      0.0023323615  -0.0022285776   20.332379      18.697745      1.6346344     -1.765508       18221.557    
    119000   1.0488079      0.0023323615  -7.5635133e-06  20.142333      18.584853      1.5574797     -1.8824723      18332.003    
    120000   1.0004112      0.0023323615   0.0035082586   20.0057        18.52009       1.4856106     -2.0600084      18223.842    
    121000   0.91575442     0.0023323615  -0.0027189838   19.882097      18.522201      1.3598953     -1.8703064      18099.713    
    122000   1.0375669      0.0023323615   0.00035590618  20.283097      18.74231       1.5407868     -1.7668489      18210.008    
    123000   0.93806427     0.0023323615  -0.0029832649   19.878857      18.485832      1.3930254     -2.0408711      18122.681    
    124000   0.97364725     0.0023323615   0.00095958456  19.873356      18.42749       1.4458662     -2.089436       18242.385    
    125000   0.95977186     0.0023323615  -0.0074773624   20.123304      18.698043      1.4252612     -1.9205511      18167.744    
    126000   1.0060262      0.0023323615  -0.0044444774   20.597761      19.103812      1.493949      -1.5710577      18164.246    
    127000   0.89390129     0.0023323615  -0.0015784739   20.092592      18.765149      1.3274434     -1.8681585      18436.253    
    128000   1.0227405      0.0023323615   0.0026315737   20.044745      18.525975      1.5187696     -1.8963783      18303.495    
    129000   1.0573001      0.0023323615  -0.00064502525  20.08309       18.512999      1.5700907     -1.9746598      18345.328    
    130000   0.94816995     0.0023323615  -0.0028437745   20.12381       18.715778      1.4080324     -1.8166763      18391.483    
    131000   0.96660601     0.0023323615   0.00031619721  20.289989      18.854579      1.4354099     -1.6310538      18263.186    
    132000   0.96326755     0.0023323615  -0.0040617564   20.0131        18.582648      1.4304523     -1.9868976      18472.964    
    133000   1.1190344      0.0023323615  -0.00028577241  20.25231       18.590544      1.6617662     -1.8903244      18307.618    
    134000   0.96267532     0.0023323615  -0.00056384434  20.193111      18.763538      1.4295728     -1.8094158      18318.679    
    135000   1.0077832      0.0023323615  -0.00016027224  19.985085      18.488527      1.496558      -2.0063314      18339.224    
    136000   0.98350122     0.0023323615  -0.0021003462   20.07621       18.615711      1.4604993     -1.8659209      18195.06     
    137000   1.1079233      0.0023323615   0.0033260796   20.265585      18.620319      1.6452662     -1.8082158      18191.887    
    138000   0.90168865     0.0023323615   0.00061214536  20.165672      18.826665      1.3390076     -1.8393206      18125.041    
    139000   0.92201863     0.0023323615   0.0017872682   20.081148      18.71195       1.3691977     -1.8328262      18071.789    
    140000   1.0480151      0.0023323615   0.00082292831  20.381708      18.825406      1.5563025     -1.5642699      18355.014    
    141000   1.1019196      0.0023323615   0.0037907296   20.387726      18.751375      1.6363507     -1.7185038      18365.146    
    142000   1.0394728      0.0023323615  -0.0022561951   20.573603      19.029986      1.5436172     -1.5281692      18530.295    
    143000   0.99552561     0.0023323615   0.00088232408  20.094442      18.616086      1.4783555     -1.8237362      18453.657    
    144000   0.98884127     0.0023323615  -0.0023361551   19.986113      18.517684      1.4684293     -1.9432703      18442.763    
    145000   0.90997944     0.0023323615   3.3829371e-05  20.214822      18.863502      1.3513195     -1.668691       18551.535    
    146000   1.1569764      0.0023323615  -0.00081838738  20.316693      18.598583      1.71811       -2.0112987      18517.321    
    147000   1.044603       0.0023323615   0.00071581074  20.376835      18.8256        1.5512354     -1.7530687      18294.548    
    148000   1.0069511      0.0023323615  -0.0010457335   19.884201      18.388879      1.4953225     -2.0298656      18290.666    
    149000   0.98018781     0.0023323615  -0.00076217789  20.168286      18.712707      1.4555789     -1.8569831      18156.765    
    150000   1.0175313      0.0023323615   0.0001787948   20.006954      18.49592       1.511034      -1.9537926      18200.89     
    151000   0.86685073     0.0023323615   0.00049893168  19.835704      18.54843       1.2872733     -1.9700315      18083.471    
    152000   1.0467509      0.0023323615  -3.8430976e-05  20.045481      18.491056      1.5544251     -1.9547737      18027.657    
    153000   0.9580396      0.0023323615   0.0042297558   20.06531       18.642621      1.4226888     -1.8714799      17964.496    
    154000   1.0254828      0.0023323615   0.0044026451   20.038912      18.51607       1.5228419     -1.9766582      18092.515    
    155000   1.121784       0.0023323615   0.0047749007   20.311269      18.64542       1.6658492     -1.7980171      18013.468    
    156000   1.0159731      0.0023323615  -0.0029885318   20.024044      18.515324      1.5087201     -1.9410209      18104.7      
    157000   0.87837419     0.0023323615  -0.00049435928  20.058017      18.753632      1.3043857     -1.8045671      18066.856    
    158000   1.0354937      0.0023323615  -0.0013892745   19.926638      18.388929      1.5377081     -2.0934415      18122.198    
    159000   1.0498277      0.0023323615   0.00092411996  20.330093      18.771099      1.5589941     -1.8292188      18088.915    
    160000   0.96845415     0.0023323615  -0.00020198665  20.165917      18.727763      1.4381544     -1.7798157      18240.254    
    161000   0.93629073     0.0023323615  -0.0016009874   20.21383       18.823438      1.3903917     -1.8032044      18244.369    
    162000   0.90045777     0.0023323615  -0.00020578686  19.977891      18.640711      1.3371798     -1.8289152      18333.946    
    163000   1.0443345      0.0023323615   0.0010631393   20.074164      18.523327      1.5508368     -1.9441347      18179.147    
    164000   0.90698078     0.0023323615  -0.0036038682   20.005506      18.65864       1.3468665     -1.8008859      18224.644    
    165000   1.0800134      0.0023323615   0.0013700913   20.234001      18.630181      1.6038198     -1.9574996      18311.924    
    166000   0.95785727     0.0023323615   0.0024491499   19.962347      18.539928      1.422418      -1.9575719      18381.393    
    167000   0.97753502     0.0023323615  -0.0018321166   20.019532      18.567893      1.4516395     -1.9720031      18342.655    
    168000   1.0810773      0.0023323615   0.0025401167   20.05459       18.44919       1.6053998     -2.1730596      18335.754    
    169000   0.85421124     0.0023323615   0.0018604122   19.780712      18.512208      1.2685037     -1.8822988      18200.136    
    170000   1.041313       0.0023323615   0.0018743831   19.998818      18.452468      1.5463499     -2.0907047      18203.678    
    171000   0.92781914     0.0023323615  -0.00016248022  20.481212      19.1034        1.3778114     -1.5111948      18262.197    
    172000   1.0220224      0.0023323615   0.0010944278   20.225083      18.707379      1.5177032     -1.7481893      18407.109    
    173000   0.9969642      0.0023323615   0.0017114082   20.114121      18.633629      1.4804918     -1.8904908      18374.686    
    174000   1.1232987      0.0023323615  -0.0039991136   20.456262      18.788164      1.6680985     -1.784014       18434.312    
    175000   0.9758202      0.0023323615   0.0021392497   20.186838      18.737745      1.449093      -1.8027022      18356.84     
    176000   1.0675894      0.0023323615  -0.0026171209   20.093241      18.507871      1.5853702     -1.9348756      18147.479    
    177000   1.0853963      0.0023323615  -0.0031981277   20.381853      18.77004       1.6118134     -1.8279283      18128.642    
    178000   1.0194658      0.0023323615  -0.002779009    20.211375      18.697468      1.5139067     -1.7636883      18244.832    
    179000   0.98664489     0.0023323615   0.0023220526   20.366579      18.901412      1.4651677     -1.7198079      18423.648    
    180000   1.0208518      0.0023323615   0.0049744571   19.938998      18.423034      1.5159649     -2.0492084      18381.722    
    181000   0.96993732     0.0023323615   0.00025283091  20.005672      18.565315      1.4403569     -2.0413259      18287.158    
    182000   1.0158546      0.0023323615   0.0029541142   19.993407      18.484863      1.5085441     -1.9976303      18218.271    
    183000   0.97308919     0.0023323615   0.00096720077  20.005647      18.56061       1.4450374     -1.8582071      18233.883    
    184000   0.92889354     0.0023323615   0.0020638302   20.055495      18.676089      1.3794069     -1.9106851      18352.402    
    185000   1.0049544      0.0023323615  -0.0016692138   20.139803      18.647446      1.4923572     -1.9056242      18320.081    
    186000   1.0045525      0.0023323615  -0.0014523817   20.112724      18.620964      1.4917605     -1.8715518      18311.709    
    187000   0.9577399      0.0023323615   0.0011588338   19.937646      18.515402      1.4222438     -1.8947534      18205.182    
    188000   0.93513547     0.0023323615  -0.0015520637   20.041021      18.652345      1.3886762     -1.9238305      17974.327    
    189000   0.95476064     0.0023323615   0.00404846     20.18452       18.766701      1.4178195     -1.7215197      18163.744    
    190000   0.98309601     0.0023323615  -0.00089780643  20.059636      18.599739      1.4598976     -1.9627676      18150.057    
    191000   1.0267059      0.0023323615   1.0879874e-05  20.544492      19.019834      1.5246582     -1.5099012      18268.545    
    192000   0.94962248     0.0023323615   0.00072361308  19.950879      18.540689      1.4101894     -1.8901551      18180.667    
    193000   0.87226674     0.0023323615   0.0059397064   19.938419      18.643103      1.2953161     -1.8187081      18109.125    
    194000   0.96569232     0.0023323615  -0.0050756485   20.014919      18.580866      1.4340531     -2.0142197      18113.654    
    195000   1.0350303      0.0023323615   0.0020255057   20.235139      18.698119      1.53702       -1.8844879      18088.384    
    196000   0.94306218     0.0023323615  -0.0020817356   19.843292      18.442844      1.4004473     -2.0835616      18208.028    
    197000   0.96607926     0.0023323615  -0.002630822    20.185665      18.751037      1.4346277     -1.795793       18180.256    
    198000   0.99981229     0.0023323615   0.00014136813  20.139071      18.65435       1.4847212     -1.8714248      18360.551    
    199000   0.97463588     0.0023323615   0.0051687228   20.122506      18.675172      1.4473343     -1.8303575      18303.683    
    200000   1.0606579      0.0023323615  -0.0036175417   20.250344      18.675267      1.575077      -2.0083021      18241.348    
    201000   0.94816467     0.0023323615   0.0051462358   20.188549      18.780524      1.4080245     -1.7861329      18310.641    
    202000   1.1081327      0.0023323615  -9.2951443e-05  20.324751      18.679174      1.645577      -1.8033223      18275.314    
    203000   0.91940371     0.0023323615  -0.00040381744  20.056153      18.690839      1.3653145     -1.9227333      18289.704    
    204000   0.92152223     0.0023323615   0.00050886349  19.905337      18.536877      1.3684605     -1.9255894      18297.634    
    205000   1.1034433      0.0023323615   0.0015631051   20.21954       18.580927      1.6386132     -1.872478       18350.148    
    206000   1.0341163      0.0023323615   0.0020622195   20.241466      18.705803      1.5356627     -1.8118378      18371.886    
    207000   0.93219532     0.0023323615  -0.0033332097   20.148156      18.763846      1.38431       -1.9010808      18398.616    
    208000   1.2172623      0.0023323615   0.0056756407   20.647794      18.84016       1.8076345     -1.7551367      18440.449    
    209000   0.89775134     0.0023323615  -0.0017576197   20.137415      18.804254      1.3331607     -1.7336444      18506.54     
    210000   1.2358057      0.0023323615  -0.0015045009   20.426357      18.591185      1.8351714     -1.8390753      18388.593    
    211000   0.95873774     0.0023323615  -0.0016247059   20.031608      18.607882      1.4237255     -1.8795987      18390.182    
    212000   0.85875903     0.0023323615   0.0012263869   20.06686       18.791603      1.2752572     -1.6031513      17544.943    
    213000   1.0360413      0.0023323615   0.0010918486   19.965253      18.426731      1.5385214     -2.1078425      18294.659    
    214000   1.155462       0.0023323615   0.0056747976   20.130054      18.414193      1.7158611     -2.0717876      18368.813    
    215000   0.95185782     0.0023323615   0.003710203    19.962788      18.549279      1.4135089     -1.9577265      18185.834    
    216000   0.89822239     0.0023323615   0.0022708635   20.141701      18.807841      1.3338603     -1.7923573      18128.372    
    217000   0.96732383     0.0023323615   0.0005941571   19.805097      18.368621      1.4364759     -2.113204       18176.707    
    218000   0.97526757     0.0023323615  -0.00068901739  19.974796      18.526524      1.4482723     -1.9627487      18203.765    
    219000   0.96418535     0.0023323615   0.0029196043   19.932744      18.500929      1.4318152     -1.9679293      18263.671    
    220000   0.87801444     0.0023323615  -0.0037205481   20.126286      18.822435      1.3038514     -1.7550093      18198.212    
    221000   1.0054821      0.0023323615   0.0015853294   19.814825      18.321684      1.493141      -2.171805       18205.219    
    222000   0.90623042     0.0023323615  -0.0014457004   19.958334      18.612582      1.3457522     -2.0138841      18145.236    
    223000   1.2096409      0.0023323615   0.0016773253   20.079856      18.283539      1.7963168     -2.2266476      18342.449    
    224000   1.0377171      0.0023323615  -0.0036469396   20.269476      18.728466      1.5410099     -1.8479434      18302.593    
    225000   1.0374956      0.0023323615  -0.0013977728   20.15047       18.609789      1.540681      -1.8506781      18288.903    
    226000   0.92889873     0.0023323615  -0.00080801515  19.907947      18.528533      1.3794146     -1.895018       18434.023    
    227000   1.0061516      0.0023323615   0.0037298495   19.967449      18.473313      1.4941352     -2.0348337      18208.57     
    228000   1.0690664      0.0023323615   0.0012199183   20.342388      18.754824      1.5875636     -1.66918        18152.209    
    229000   1.0512605      0.0023323615   5.7103193e-05  20.117313      18.556191      1.5611218     -1.8322568      18184.939    
    230000   1.012278       0.0023323615  -0.0012873686   20.177449      18.674216      1.5032328     -1.7475891      18211.889    
    231000   1.0268459      0.0023323615   0.0061395058   20.234984      18.710118      1.5248661     -1.8069907      18351.208    
    232000   1.0261377      0.0023323615   0.0028955227   20.347566      18.823752      1.5238145     -1.725664       18342.958    
    233000   1.0489611      0.0023323615  -0.0020915629   20.453425      18.895718      1.5577073     -1.6365872      18412.677    
    234000   1.0383941      0.0023323615   0.00029273515  20.233514      18.691498      1.5420153     -1.6990086      18366.96     
    235000   0.96238099     0.0023323615  -0.00159375     20.254893      18.825757      1.4291358     -1.6751738      18216.808    
    236000   0.967189       0.0023323615   0.0053418917   20.164474      18.728199      1.4362757     -1.7487593      18193.233    
    237000   1.0257581      0.0023323615  -0.0019206257   20.12397       18.600719      1.5232508     -1.8576182      18384.302    
    238000   1.1221658      0.0023323615  -0.00050788475  20.278378      18.611962      1.6664162     -1.8843703      18175.095    
    239000   1.0194338      0.0023323615   0.0029673049   20.087291      18.573432      1.5138592     -2.0013174      18152.12     
    240000   0.98962785     0.0023323615   0.0018462229   20.005555      18.535957      1.4695974     -1.9255967      18159.332    
    241000   1.148722       0.0023323615  -0.0043625272   20.444646      18.738793      1.7058522     -1.7822634      18135.929    
    242000   1.0145953      0.0023323615   0.001807144    20.216185      18.709511      1.506674      -1.8926234      18002.896    
    243000   0.95407856     0.0023323615   0.00050747091  20.204152      18.787345      1.4168067     -1.8373124      17998.033    
    244000   1.0036062      0.0023323615   0.0032458601   20.209509      18.719153      1.4903552     -1.7255972      17927.043    
    245000   1.1302708      0.0023323615   0.00072357977  19.998062      18.31961       1.6784522     -2.1455457      18076.967    
    246000   0.94095547     0.0023323615  -0.00250546     20.271523      18.874204      1.3973189     -1.7318788      17998.556    
    247000   0.95452207     0.0023323615  -0.0049133739   19.954959      18.537494      1.4174653     -1.8836943      18013.708    
    248000   1.0140973      0.0023323615  -0.003698584    20.306019      18.800085      1.5059344     -1.6072699      18145.563    
    249000   1.0156356      0.0023323615   0.0012395705   20.213153      18.704934      1.5082188     -1.7875304      18138.822    
    250000   0.91930013     0.0023323615   0.0011347839   19.730282      18.365121      1.3651607     -2.0552291      17918.563    
    251000   0.96530035     0.0023323615   0.0045049074   20.004714      18.571243      1.433471      -2.0139654      18068.4      
    252000   0.97088371     0.0023323615   0.0013394152   20.217995      18.776233      1.4417623     -1.7528715      18317.698    
    253000   0.88243956     0.0023323615  -0.00040310965  20.205258      18.894835      1.3104228     -1.6326513      18284.906    
    254000   0.91700535     0.0023323615  -0.00040505802  20.11047       18.748717      1.3617529     -1.8789958      18186.686    
    255000   0.90380297     0.0023323615   0.0010827257   19.979614      18.637467      1.3421474     -1.8661804      18095.451    
    256000   1.0705525      0.0023323615   0.00093240697  20.331727      18.741957      1.5897705     -1.7895473      18047.371    
    257000   1.0041835      0.0023323615  -0.001018565    20.245743      18.75453       1.4912126     -1.7921682      18040.993    
    258000   0.92015293     0.0023323615  -0.0029787944   20.209012      18.842585      1.3664271     -1.8130294      17800.15     
    259000   0.82381422     0.0023323615  -0.001074988    19.974146      18.750782      1.2233641     -1.7407993      17901.18     
    260000   1.102158       0.0023323615   0.0072809622   20.495126      18.858421      1.6367046     -1.6934742      17922.542    
    261000   1.0404215      0.0023323615   0.0035775134   20.358435      18.813409      1.545026      -1.7168411      18031.734    
    262000   1.1369503      0.0023323615  -0.001954055    20.627571      18.9392        1.6883712     -1.5231709      17965.415    
    263000   0.98265606     0.0023323615   0.00095851713  20.246649      18.787404      1.4592443     -1.7267691      18088.833    
    264000   1.0242596      0.0023323615  -0.0013721664   20.316572      18.795547      1.5210254     -1.6702161      18079.659    
    265000   1.0694893      0.0023323615  -0.0052056198   20.33185       18.743658      1.5881917     -1.6920916      18151.162    
    266000   0.99912255     0.0023323615  -0.001635519    20.234038      18.750341      1.483697      -1.6808453      18326.203    
    267000   1.0211139      0.0023323615   0.0023222451   20.475169      18.958815      1.5163542     -1.6158027      18223.939    
    268000   1.0864214      0.0023323615   0.0033348123   20.243312      18.629976      1.6133357     -1.7935744      18047.576    
    269000   0.89487341     0.0023323615  -0.0023627257   20.095406      18.766519      1.328887      -1.7307988      18134.275    
    270000   0.94503597     0.0023323615   0.00021332586  20.017165      18.613787      1.4033784     -1.8529222      17849.961    
    271000   0.87072792     0.0023323615   0.0019172373   20.114434      18.821403      1.293031      -1.6270102      17796.24     
    272000   0.9615068      0.0023323615   0.0039923007   20.047856      18.620018      1.4278376     -1.8670645      17910.026    
    273000   0.97588367     0.0023323615  -0.00028467063  20.213651      18.764463      1.4491873     -1.8167027      18008.915    
    274000   1.0646585      0.0023323615   0.00022939387  20.182357      18.601339      1.5810179     -1.9049432      18171.942    
    275000   1.0519218      0.0023323615  -0.001082996    20.228998      18.666894      1.5621039     -1.7763581      18295.541    
    276000   1.0974148      0.0023323615  -0.00513178     20.219342      18.589681      1.629661      -1.7673154      18198.016    
    277000   1.0045359      0.0023323615  -5.5433287e-07  20.116847      18.625112      1.4917358     -1.8586499      18091.896    
    278000   0.96908683     0.0023323615  -0.00087597419  19.951874      18.51278       1.4390939     -1.9395508      18017.172    
    279000   0.91733474     0.0023323615  -0.002039852    19.990376      18.628134      1.3622421     -1.8487668      18221.341    
    280000   1.0117445      0.0023323615   0.0003961778   20.067298      18.564858      1.5024406     -1.846874       18222.711    
    281000   1.0244166      0.0023323615  -0.00086338052  20.276143      18.754884      1.5212586     -1.7791331      18197.09     
    282000   1.0228663      0.0023323615   0.0041275049   20.17244       18.653484      1.5189564     -1.8478767      18094.936    
    283000   1.1161857      0.0023323615   0.0020612167   20.10248       18.444944      1.6575358     -1.9744993      17910.328    
    284000   0.97406017     0.0023323615  -0.0021724024   19.888795      18.442315      1.4464793     -1.9906066      17735.954    
    285000   1.114788       0.0023323615   0.0019967697   20.726594      19.071134      1.6554602     -1.6103336      17808.534    
    286000   1.0567204      0.0023323615   0.0014193274   20.231788      18.662558      1.5692299     -1.7475242      17890.7      
    287000   1.0467626      0.0023323615   0.0010970929   20.350052      18.795609      1.5544425     -1.7282522      18095.739    
    288000   1.1316183      0.0023323615   0.0032287152   20.22665       18.546197      1.6804532     -1.8351876      18069.189    
    289000   0.94791754     0.0023323615  -0.0013945821   20.308159      18.900502      1.4076575     -1.6944434      17928.624    
    290000   1.0209472      0.0023323615   0.0020239462   20.219578      18.703472      1.5161066     -1.8627107      18231.192    
    291000   0.98943558     0.0023323615  -0.00029087093  20.025656      18.556344      1.4693118     -1.8914811      18093.122    
    292000   0.90269535     0.0023323615  -0.0016413338   19.783357      18.442854      1.3405026     -2.0259285      17822.576    
    293000   0.77971351     0.0023323615  -0.0040113358   19.7379        18.580026      1.1578746     -1.9349742      17895.364    
    294000   1.0154343      0.0023323615  -0.0010683882   19.944475      18.436555      1.5079199     -2.0480318      17939.706    
    295000   1.066728       0.0023323615  -0.00066850771  20.155498      18.571407      1.5840911     -1.8144404      17808.061    
    296000   1.0919321      0.0023323615   0.0037616026   20.462481      18.840962      1.6215191     -1.649554       17740.752    
    297000   0.958676       0.0023323615  -0.0024471514   20.178315      18.754682      1.4236339     -1.7985781      17893.696    
    298000   0.92940509     0.0023323615  -0.0026364061   20.175614      18.795448      1.3801666     -1.7440123      17816.595    
    299000   1.0325295      0.0023323615   0.0016598472   19.979563      18.446257      1.5333063     -2.0586657      17876.442    
    300000   0.88191259     0.0023323615  -0.0004942263   19.844509      18.534869      1.3096402     -1.9193137      17782.79     
    301000   0.92806488     0.0023323615  -2.0826406e-05  20.097457      18.719281      1.3781763     -1.7322048      17912.07     
    302000   0.95107274     0.0023323615   0.0016549236   20.04139       18.629047      1.412343      -1.863888       17936.946    
    303000   0.99620718     0.0023323615   0.0039525439   20.195232      18.715864      1.4793677     -1.8199635      17870.479    
    304000   1.0401386      0.0023323615   0.0029421274   20.003057      18.458452      1.5446058     -1.9919452      17799.318    
    305000   0.89694582     0.0023323615   0.0015586986   19.76732       18.435356      1.3319645     -2.0171103      17905.628    
    306000   0.96981825     0.0023323615   0.0008945937   19.899781      18.4596        1.4401801     -1.9880787      17934.854    
    307000   1.0019582      0.0023323615  -0.00018596948  20.080628      18.59272       1.487908      -1.9519891      17855.061    
    308000   1.0273895      0.0023323615   0.0033350851   20.292539      18.766866      1.5256734     -1.7058044      17731.865    
    309000   0.84621355     0.0023323615  -0.0019397811   19.689123      18.432496      1.2566271     -1.9780375      17777.725    
    310000   0.86723602     0.0023323615  -0.00084221495  19.791477      18.503632      1.2878455     -1.9093243      17741.361    
    311000   1.0769026      0.0023323615  -0.0029018853   20.106329      18.507129      1.5992004     -1.9294935      17788.967    
    312000   0.99007198     0.0023323615  -0.0013068618   19.885677      18.41542       1.4702569     -2.021013       17933.89     
    313000   0.96526372     0.0023323615  -0.0029433187   19.935082      18.501665      1.4334166     -2.0101166      18096.432    
    314000   0.9221722      0.0023323615   0.00078455849  19.823033      18.453607      1.3694257     -2.1002514      17738.53     
    315000   0.91160051     0.0023323615  -0.0023784197   20.110087      18.756361      1.3537268     -1.7331794      17814.923    
    316000   1.0516587      0.0023323615   5.0146149e-05  20.06176       18.500047      1.5617131     -1.9435602      17831.514    
    317000   1.0528573      0.0023323615   0.0041045362   19.679846      18.116353      1.5634931     -2.2807521      17874.422    
    318000   1.1689793      0.0023323615  -0.0015843001   20.279464      18.54353       1.7359342     -2.0079385      17787.287    
    319000   1.1182435      0.0023323615   0.0010683007   20.380715      18.720124      1.6605916     -1.7551302      17856.735    
    320000   1.0304126      0.0023323615  -0.00014627929  20.548757      19.018595      1.5301628     -1.6810678      17843.296    
    321000   1.0427784      0.0023323615  -0.0040567622   20.276571      18.728045      1.548526      -1.8129239      17973.761    
    322000   1.0262703      0.0023323615  -0.004568184    20.402936      18.878924      1.5240113     -1.619779       18027.214    
    323000   0.97039534     0.0023323615   0.00027489933  20.146194      18.705157      1.4410371     -1.8015064      18001.516    
    324000   1.0249563      0.0023323615  -0.0036325115   20.388986      18.866926      1.5220601     -1.6850208      18087.519    
    325000   0.97271706     0.0023323615  -0.00027628781  20.152617      18.708133      1.4444848     -1.7974817      18092.945    
    326000   0.98421008     0.0023323615  -0.001235007    20.055277      18.593725      1.461552      -1.864273       18144.903    
    327000   0.90961461     0.0023323615  -0.0012575018   19.914968      18.56419       1.3507777     -2.0902979      18102.106    
    328000   0.94976943     0.0023323615   0.0034433949   19.997413      18.587006      1.4104076     -1.8991399      17950.701    
    329000   0.98067715     0.0023323615  -0.001577045    19.967111      18.510806      1.4563056     -1.8421218      18148.759    
    330000   0.97846574     0.0023323615  -0.0019474959   20.103167      18.650146      1.4530216     -1.8356688      18049.374    
    331000   1.0431433      0.0023323615   0.0016396231   20.237146      18.688079      1.5490678     -1.8178293      17946.247    
    332000   1.2197631      0.0023323615   0.0029684078   20.734585      18.923236      1.8113482     -1.7188327      17951.818    
    333000   1.0172035      0.0023323615  -0.003811302    20.225253      18.714706      1.5105471     -1.7992289      18181.455    
    334000   1.0169386      0.0023323615   0.0023207731   20.471231      18.961077      1.5101538     -1.6138856      18054.268    
    335000   1.006074       0.0023323615  -0.0010465884   20.017303      18.523283      1.4940199     -1.9594806      17942.066    
    336000   0.96596486     0.0023323615   0.0010847303   20.241579      18.807121      1.4344578     -1.7787465      17980.052    
    337000   0.98359672     0.0023323615   0.0024065931   19.929622      18.468981      1.4606411     -2.0224666      17903.964    
    338000   1.02388        0.0023323615   0.0022564297   20.173644      18.653182      1.5204617     -1.8079325      17858.93     
    339000   0.95539025     0.0023323615   0.00012053922  20.186481      18.767727      1.4187545     -1.7996586      17886.735    
    340000   1.0706352      0.0023323615  -0.0018544214   20.373135      18.783241      1.5898933     -1.7598564      17926.679    
    341000   1.0019661      0.0023323615   0.0039356691   20.379153      18.891233      1.4879196     -1.6269307      18242.021    
    342000   0.75033015     0.0023323615  -0.00064156709  19.748532      18.634292      1.1142403     -1.8362683      18155.623    
    343000   0.9685764      0.0023323615   0.0032806424   20.024054      18.585718      1.438336      -1.879714       17978.954    
    344000   1.1187675      0.0023323615  -0.00081531015  20.450969      18.789599      1.6613698     -1.6308293      17916.092    
    345000   0.93989474     0.0023323615   0.0015735103   20.17881       18.783066      1.3957437     -1.8125199      17589.561    
    346000   1.0342509      0.0023323615  -0.0027906997   20.155838      18.619975      1.5358626     -1.8965973      17893.125    
    347000   1.0177217      0.0023323615  -0.0032025842   19.992643      18.481327      1.5113168     -2.0075049      17900.069    
    348000   1.0696816      0.0023323615  -0.0002221544   20.388479      18.800001      1.5884772     -1.7894984      17902.75     
    349000   0.87617858     0.0023323615  -0.0017186189   20.199007      18.897882      1.3011252     -1.6334802      18007.047    
    350000   0.96519642     0.0023323615   0.000267046    20.013488      18.580172      1.4333167     -1.8926029      17908.924    
    351000   0.89936098     0.0023323615   0.0056567571   20.353434      19.017883      1.3355511     -1.4966164      17999.99     
    352000   0.96171033     0.0023323615  -0.0020563108   20.470226      19.042086      1.4281398     -1.4906535      18097.902    
    353000   0.87785589     0.0023323615   0.0033997509   20.338664      19.035048      1.303616      -1.6084186      18008.223    
    354000   0.96150941     0.0023323615   0.0031607938   19.956086      18.528245      1.4278415     -1.992124       17983.372    
    355000   1.0651261      0.0023323615   0.00018753899  20.54707       18.965357      1.5817123     -1.6053391      17915.501    
    356000   1.0711541      0.0023323615  -0.00035140139  20.382234      18.79157       1.5906638     -1.7738358      18051.499    
    357000   0.9552147      0.0023323615   0.0043172989   20.167633      18.749139      1.4184938     -1.7196361      18114.709    
    358000   1.017146       0.0023323615   0.0016296027   20.020219      18.509758      1.5104618     -1.9021727      17935.37     
    359000   0.93418291     0.0023323615  -0.005660151    19.990067      18.602805      1.3872616     -1.9765123      18027.92     
    360000   0.90450248     0.0023323615  -0.0031146703   19.924068      18.580882      1.3431862     -1.9425545      17814.385    
    361000   0.95413722     0.0023323615   0.0020088908   20.122671      18.705777      1.4168938     -1.7250552      17781.165    
    362000   0.99454252     0.0023323615  -0.0027403667   20.40808       18.931184      1.4768956     -1.5653778      17928.227    
    363000   1.1251797      0.0023323615   0.0068798957   20.429691      18.758799      1.6708919     -1.7414627      17850.792    
    364000   0.94768794     0.0023323615  -0.0018090856   20.393337      18.98602       1.4073166     -1.7090565      17850.603    
    365000   1.0218707      0.0023323615  -0.00060352865  20.232315      18.714837      1.5174781     -1.8190143      17899.841    
    366000   1.1106532      0.0023323615  -0.00034635952  20.445299      18.795979      1.64932       -1.7225021      17917.842    
    367000   1.0616485      0.0023323615  -0.0030768028   20.278579      18.702031      1.576548      -1.8823915      17921.101    
    368000   0.99170917     0.0023323615  -0.0015360431   20.221426      18.748738      1.4726881     -1.777744       17978.53     
    369000   0.94289928     0.0023323615   0.0038096977   20.128316      18.728111      1.4002054     -1.7876879      17975.153    
    370000   0.96482787     0.0023323615   0.00049160716  19.933178      18.500409      1.4327694     -1.9415736      17958.675    
    371000   0.96932629     0.0023323615  -0.0046572747   19.946591      18.507142      1.4394495     -1.9839431      17652.705    
    372000   1.025002       0.0023323615   0.0031404983   20.158092      18.635964      1.522128      -1.8376062      17689.616    
    373000   1.0205154      0.0023323615   0.0038671519   20.208205      18.692739      1.5154654     -1.7481379      18089.997    
    374000   0.94733901     0.0023323615   0.00077728031  20.333621      18.926822      1.4067984     -1.6377747      17860.914    
    375000   1.1686437      0.0023323615   0.0005508842   20.361626      18.62619       1.735436      -1.9293691      17701.236    
    376000   0.90449648     0.0023323615  -0.0011186103   19.907231      18.564054      1.3431773     -1.9850514      17958.543    
    377000   0.95614029     0.0023323615  -0.0029428453   20.104777      18.684908      1.4198683     -1.8368549      18068.626    
    378000   1.0844625      0.0023323615   0.0049077304   20.170138      18.559712      1.6104268     -1.9058088      18118.349    
    379000   1.3288482      0.0023323615   0.0063984675   20.797228      18.823888      1.9733396     -1.7674793      18034.438    
    380000   0.99551188     0.0023323615  -0.0018944733   20.099787      18.621452      1.4783351     -1.8941916      17868.681    
    381000   0.89902681     0.0023323615  -0.0020866265   19.962333      18.627279      1.3350548     -1.8712371      17875.34     
    382000   0.9447262      0.0023323615   0.0032024089   19.89486       18.491942      1.4029184     -2.0025009      17969.432    
    383000   0.9064963      0.0023323615  -0.0027225691   20.153922      18.807775      1.346147      -1.7753536      17915.694    
    384000   1.1664775      0.0023323615  -0.0042561804   20.390704      18.658485      1.7322191     -1.8323998      17837.116    
    385000   0.88178441     0.0023323615   7.0388342e-05  19.839096      18.529646      1.3094499     -1.9876479      17942.643    
    386000   0.92899327     0.0023323615  -0.0010356921   19.976042      18.596487      1.379555      -2.0914987      17927.812    
    387000   0.99733578     0.0023323615   0.0014197985   20.257479      18.776435      1.4810436     -1.7138554      17894.267    
    388000   0.96023775     0.0023323615   0.0038642029   20.070857      18.644904      1.4259531     -1.8797294      17960.53     
    389000   0.99249568     0.0023323615  -0.0004379847   20.202511      18.728654      1.4738561     -1.938044       17859.518    
    390000   0.85958068     0.0023323615   0.0024008588   19.80436       18.527883      1.2764773     -1.9495376      17931.645    
    391000   0.97088222     0.0023323615  -0.0033775356   20.382457      18.940697      1.4417601     -1.5672933      17893.106    
    392000   1.0283684      0.0023323615  -0.00084643141  20.249795      18.722668      1.527127      -1.7191195      17918.344    
    393000   1.0496461      0.0023323615  -0.0010053971   20.25566       18.696936      1.5587245     -1.9086182      17907.998    
    394000   0.9434304      0.0023323615   0.0012438198   20.023391      18.622396      1.4009942     -1.917698       17900.076    
    395000   1.0948184      0.0023323615  -0.0014393136   20.204495      18.57869       1.6258053     -1.9151082      17827.58     
    396000   0.91272333     0.0023323615   7.6789649e-05  19.933604      18.57821       1.3553941     -1.8526145      17818.265    
    397000   0.93582453     0.0023323615  -0.0031601283   19.903121      18.513422      1.3896994     -2.0667298      17941.263    
    398000   0.91576295     0.0023323615   0.001289508    19.906577      18.546669      1.359908      -2.0231496      18053.543    
    399000   0.87071985     0.0023323615  -0.0033600591   19.89026       18.597241      1.293019      -1.9221744      17932.631    
    400000   1.0108913      0.0023323615   0.00094300156  20.099338      18.598165      1.5011736     -1.874718       17961.568    
    401000   0.95547268     0.0023323615  -0.0024099156   20.130861      18.711984      1.4188769     -1.7936599      17965.301    
    402000   1.0717149      0.0023323615  -0.0024898629   20.265353      18.673857      1.5914966     -1.9136846      17887.436    
    403000   1.1456372      0.0023323615   0.0025831057   20.428341      18.72707       1.7012712     -1.7655684      17859.144    
    404000   0.98539356     0.0023323615  -0.0018739091   19.980814      18.517504      1.4633094     -1.8619284      17912.077    
    405000   1.0055164      0.0023323615   0.0011341237   20.171596      18.678404      1.4931918     -1.883803       17908.972    
    406000   1.0480193      0.0023323615   0.0015391143   20.271638      18.715329      1.5563087     -1.8487084      18014.645    
    407000   1.0888744      0.0023323615   0.00059374417  20.270147      18.653169      1.6169785     -1.8189296      17949.213    
    408000   1.0523582      0.0023323615  -0.00029161751  20.306164      18.743412      1.5627519     -1.720273       17861.962    
    409000   1.0037604      0.0023323615   0.001899357    20.249396      18.758812      1.4905841     -1.6832184      18002.461    
    410000   1.0598192      0.0023323615  -0.001787173    20.248484      18.674653      1.5738314     -1.7426753      18091.154    
[...]
    861000   1.0441035      0.0023323615  -0.00082219543  20.196142      18.645648      1.5504937     -1.7256653      17968.215    
    862000   1.1146345      0.0023323615   0.0035627357   20.158449      18.503217      1.6552322     -1.9925368      17988.701    
    863000   1.0624624      0.0023323615   0.0027667479   20.065035      18.487278      1.5777566     -1.8655753      17897.527    
    864000   1.0028962      0.0023323615   0.0015087446   19.969779      18.480478      1.4893009     -2.0088538      17898.105    
    865000   0.89475668     0.0023323615   0.0017218414   20.016803      18.688089      1.3287137     -1.8841358      17708.048    
    866000   1.1038253      0.0023323615  -0.0010758689   20.262258      18.623077      1.6391805     -1.915119       17740.787    
    867000   1.0565289      0.0023323615  -0.00022174171  20.380781      18.811836      1.5689454     -1.8533169      17790.641    
    868000   1.0328514      0.0023323615  -0.0030676335   20.287291      18.753507      1.5337843     -1.7117279      17867.801    
    869000   0.97190992     0.0023323615  -0.0037514516   20.199389      18.756103      1.4432862     -1.7219982      17897.575    
    870000   1.0447485      0.0023323615   0.00065447578  20.005681      18.454229      1.5514515     -2.0361174      17851.175    
    871000   0.93539515     0.0023323615  -0.00049162089  20.221563      18.832502      1.3890618     -1.7590038      17827.208    
    872000   1.0580458      0.0023323615   0.0015150405   20.491538      18.92034       1.571198      -1.5954067      17920.531    
    873000   0.91574902     0.0023323615   0.0029508191   20.260881      18.900993      1.3598873     -1.5080574      18013.371    
    874000   1.0562503      0.0023323615  -0.0031045239   20.160849      18.592318      1.5685317     -1.9444679      18050.932    
    875000   1.0877621      0.0023323615   0.00094386676  20.043488      18.428161      1.6153267     -2.0372039      17833.827    
    876000   0.95497214     0.0023323615  -0.0021266185   20.186103      18.767969      1.4181336     -1.7270695      17951.288    
    877000   1.2981926      0.0023323615   0.00034206656  20.698418      18.770602      1.927816      -1.804553       17851.96     
    878000   0.98056125     0.0023323615  -0.0016398718   20.176077      18.719944      1.4561335     -1.966344       17913.118    
    879000   0.94921704     0.0023323615  -0.0011586113   19.902906      18.493319      1.4095873     -1.9916328      17882.549    
    880000   1.0318291      0.0023323615  -0.0014304681   20.124943      18.592677      1.5322662     -1.8927263      17823.977    
    881000   0.90034056     0.0023323615  -0.00064122945  20.005825      18.668819      1.3370057     -1.8207142      17961.028    
    882000   0.86789595     0.0023323615   0.00094764131  20.354295      19.06547       1.2888255     -1.5670978      18150.743    
    883000   0.95971763     0.0023323615  -0.0037456631   20.141034      18.715853      1.4251807     -1.7812454      18059.511    
    884000   1.019434       0.0023323615   0.0076243133   20.626223      19.112364      1.5138595     -1.5063641      18007.196    
    885000   1.0647391      0.0023323615   0.0025291802   20.429184      18.848046      1.5811375     -1.6906954      18436.369    
    886000   1.0062629      0.0023323615   0.00093901409  20.045105      18.550805      1.4943004     -1.9426633      18348.374    
    887000   0.87167258     0.0023323615  -0.0028826318   19.800432      18.505998      1.2944338     -2.0300124      18149.799    
    888000   0.88578982     0.0023323615   0.0027341118   20.05593       18.740532      1.3153979     -1.8152352      18278.079    
    889000   0.80809058     0.0023323615   0.00020134938  19.970713      18.770699      1.2000145     -1.7979054      18079.931    
    890000   1.0261527      0.0023323615   7.0454304e-05  20.145796      18.62196       1.5238368     -1.9734755      18010.702    
    891000   0.81483775     0.0023323615   0.00012389234  19.674789      18.464755      1.2100341     -1.9940887      18006.868    
    892000   1.018983       0.0023323615   0.0028976155   20.330613      18.817424      1.5131898     -1.8279604      18094.391    
    893000   0.95203966     0.0023323615  -0.00023258401  20.342461      18.928682      1.4137789     -1.6971029      18177.432    
    894000   0.93382019     0.0023323615   0.0020169839   20.030232      18.643509      1.386723      -1.8972274      18230.423    
    895000   0.98055136     0.0023323615   0.00053327469  20.232142      18.776023      1.4561188     -1.7733339      18078.883    
    896000   1.0419937      0.0023323615   0.0012382012   20.038738      18.491377      1.5473606     -2.0165515      18120.427    
    897000   0.95544425     0.0023323615  -0.00056849306  19.739457      18.320622      1.4188347     -2.1328071      18364.44     
    898000   1.0470668      0.0023323615  -0.0020147998   20.2733        18.718406      1.5548941     -1.7524419      18447.378    
    899000   1.0589691      0.0023323615  -0.0035073192   20.26939       18.696821      1.5725692     -1.7560656      18414.07     
    900000   0.95599809     0.0023323615   0.005090766    20.149378      18.729721      1.4196572     -1.7211817      18244.442    
    901000   1.0748857      0.0023323615  -0.0018226271   20.470303      18.874098      1.5962052     -1.686607       18388.813    
    902000   0.96744499     0.0023323615  -0.0020793218   20.426644      18.989988      1.4366558     -1.5597886      18275.445    
    903000   1.0460395      0.0023323615   0.00029104932  20.273729      18.720361      1.5533686     -1.7949406      18142.841    
    904000   0.96936973     0.0023323615   0.0008251806   19.824982      18.385468      1.439514      -2.125486       18316.302    
    905000   1.0876916      0.0023323615   0.0012841771   20.126354      18.511132      1.615222      -1.9101233      18323.949    
    906000   0.94527127     0.0023323615  -0.0042363736   20.203562      18.799834      1.4037278     -1.8335333      18218.547    
    907000   0.88380134     0.0023323615   0.002514174    19.885435      18.57299       1.312445      -1.9503964      18235.969    
    908000   1.1403012      0.0023323615  -0.005078037    20.285707      18.592359      1.6933473     -1.9808465      18537.426    
    909000   0.95748806     0.0023323615  -0.0025992608   19.792088      18.370219      1.4218698     -2.03749        18192.022    
    910000   0.96774528     0.0023323615   0.00047781235  20.100262      18.66316       1.4371017     -1.9383707      18119.701    
    911000   1.0405526      0.0023323615  -0.0041367295   20.014962      18.469742      1.5452207     -2.0418852      18074.774    
    912000   0.95307903     0.0023323615  -0.00070160075  20.071716      18.656393      1.4153224     -1.9053064      18063.606    
    913000   1.1067825      0.0023323615   0.00072707512  20.445437      18.801865      1.643572      -1.5706975      17961.06     
    914000   0.96641048     0.0023323615   0.0013385466   20.206843      18.771723      1.4351196     -1.8362386      18056.682    
    915000   1.0239808      0.0023323615  -0.0037258966   20.13163       18.611018      1.5206115     -1.9127253      17812.246    
    916000   0.97832269     0.0023323615   0.0033519049   20.286534      18.833724      1.4528092     -1.7468967      18055.353    
    917000   0.99496336     0.0023323615   0.0026183233   19.887207      18.409686      1.4775206     -2.0242815      18085.578    
    918000   0.9772026      0.0023323615   0.0016752764   19.877409      18.426263      1.4511459     -2.0329411      17836.641    
    919000   0.86803715     0.0023323615   0.0027927594   20.001283      18.712247      1.2890352     -1.8239205      17937.2      
    920000   1.0370828      0.0023323615   0.0017848917   20.205024      18.664957      1.5400679     -1.699465       17922.14     
    921000   1.1302637      0.0023323615  -0.00062153282  20.38683       18.708389      1.6784415     -1.8238682      17964.745    
    922000   1.1195074      0.0023323615   0.0033333758   20.195849      18.53338       1.6624685     -1.9123162      17955.865    
    923000   1.0434008      0.0023323615   0.002504536    20.232388      18.682938      1.5494503     -1.7976854      17996.793    
    924000   0.98548794     0.0023323615   0.0027862913   20.299389      18.835939      1.4634496     -1.7118005      17882.946    
    925000   1.0078149      0.0023323615  -0.0016361268   20.265619      18.769014      1.4966052     -1.6684384      17942.092    
    926000   1.0727727      0.0023323615   0.0029807007   20.447816      18.854749      1.5930674     -1.6566389      17928.418    
    927000   0.90910397     0.0023323615   0.0051437944   20.077799      18.72778       1.3500194     -1.7577653      18037.482    
    928000   1.0029872      0.0023323615  -0.00062143572  20.259203      18.769767      1.489436      -1.7812124      17894.838    
    929000   1.0226112      0.0023323615   0.0021055314   20.172503      18.653926      1.5185776     -1.943465       17892.269    
    930000   0.89668663     0.0023323615  -0.0023942546   20.00589       18.67431       1.3315796     -1.84395        17864.581    
    931000   1.0304565      0.0023323615   0.00053428746  20.310647      18.780419      1.5302279     -1.7204616      17831.253    
    932000   1.0730577      0.0023323615  -0.0038400209   20.467271      18.87378       1.5934907     -1.6270936      17889.754    
    933000   0.92634394     0.0023323615   0.0051341637   19.848248      18.472627      1.3756208     -2.0616539      17954.14     
    934000   0.99146532     0.0023323615   0.00038967175  20.069669      18.597343      1.472326      -1.7937796      17966.562    
    935000   1.0428598      0.0023323615   0.0038213292   20.189634      18.640987      1.5486468     -1.8967101      17894.889    
    936000   0.85723125     0.0023323615   0.00088848404  19.724023      18.451035      1.2729884     -2.0427052      17913.793    
    937000   1.0180817      0.0023323615  -0.0015447212   20.116847      18.604995      1.5118514     -1.8133688      17879.907    
    938000   1.0224703      0.0023323615  -0.0024724611   20.200474      18.682106      1.5183684     -1.8875335      17804.023    
    939000   1.1231166      0.0023323615   0.00013345478  20.303549      18.63572       1.6678281     -1.8791559      17827.234    
    940000   0.9003718      0.0023323615   0.00036590951  20.090522      18.75347       1.3370521     -1.8018008      17905.653    
    941000   1.0525164      0.0023323615  -0.0046972574   20.697103      19.134116      1.5629869     -1.5047997      17830.096    
    942000   0.9161734      0.0023323615  -0.0020967009   20.022152      18.661635      1.3605175     -1.8374041      17827.329    
    943000   0.95290243     0.0023323615  -0.0031999413   20.496598      19.081538      1.4150601     -1.5953414      17863.833    
    944000   1.0237921      0.0023323615   0.0030902014   20.642018      19.121687      1.5203313     -1.5192309      17960.662    
    945000   0.95303769     0.0023323615   0.0017397627   20.259503      18.844242      1.415261      -1.7972838      17996.472    
    946000   0.94881595     0.0023323615   0.0017773522   20.010198      18.601207      1.4089917     -1.9707316      17934.393    
    947000   1.1159402      0.0023323615  -0.0013670733   20.297397      18.640226      1.6571711     -1.7637318      17845.443    
    948000   1.1557972      0.0023323615  -0.0012543024   20.371235      18.654876      1.7163588     -1.7786992      17924.274    
    949000   1.1425439      0.0023323615   0.00062725248  20.341518      18.64484       1.6966777     -1.9083004      17796.878    
    950000   1.2099019      0.0023323615   0.0042911984   20.341254      18.544549      1.7967044     -1.9508413      17840.064    
    951000   1.1259803      0.0023323615  -0.0010152532   20.4389        18.766819      1.6720808     -1.7311995      17920.792    
    952000   1.0685296      0.0023323615   0.0025466638   20.489747      18.90298       1.5867664     -1.6504456      17939.967    
    953000   1.0778672      0.0023323615   0.0016671601   20.633574      19.032941      1.6006327     -1.5219902      18009.838    
    954000   0.96851372     0.0023323615  -0.0019460187   20.291319      18.853076      1.4382429     -1.768676       17903.543    
    955000   1.1129066      0.0023323615   0.0039347248   20.176861      18.524194      1.6526664     -1.9442243      17828.927    
    956000   1.0060859      0.0023323615   0.0022100517   20.280543      18.786506      1.4940375     -1.669133       17886.703    
    957000   0.94507654     0.0023323615   0.00083128634  19.769695      18.366257      1.4034387     -2.0120264      17891.473    
    958000   0.97035811     0.0023323615  -0.00074154307  20.388701      18.947719      1.4409818     -1.573971       17969.196    
    959000   1.0963628      0.0023323615  -0.00023658806  20.025624      18.397525      1.6280988     -2.0656889      17847.829    
    960000   1.0872517      0.0023323615  -0.002626904    20.220112      18.605544      1.6145688     -1.9578478      17739.614    
    961000   0.98657653     0.0023323615  -0.0026077177   20.041249      18.576183      1.4650661     -1.8820763      17799.264    
    962000   1.0112474      0.0023323615   0.0008535567   20.152019      18.650316      1.5017023     -1.9171066      17719.349    
    963000   0.98856598     0.0023323615   0.0012407683   20.001551      18.53353       1.4680205     -2.0172969      17786.808    
    964000   0.93907044     0.0023323615   0.0010465287   19.843942      18.449422      1.3945196     -1.984467       17848.95     
    965000   0.95142064     0.0023323615   0.0017209686   19.887377      18.474518      1.4128596     -2.0146871      17720.783    
    966000   0.95616388     0.0023323615  -0.00039863108  19.98301       18.563106      1.4199034     -2.0609279      17603.214    
    967000   0.91894489     0.0023323615  -0.003143014    19.980862      18.616229      1.3646332     -1.9626771      17633.94     
    968000   0.97637914     0.0023323615  -0.0005416682   20.412963      18.96304       1.449923      -1.730259       17765.587    
    969000   0.9668445      0.0023323615   0.0027743289   19.834816      18.399052      1.4357641     -2.0433317      17855.693    
    970000   1.0869829      0.0023323615  -4.954685e-05   20.300812      18.686643      1.6141697     -1.8445158      17875.459    
    971000   1.0755914      0.0023323615   0.0040583999   20.082269      18.485016      1.5972532     -2.0443519      17860.026    
    972000   0.96896824     0.0023323615   0.0025989667   19.933477      18.494559      1.4389178     -2.0008334      17784.925    
    973000   1.1127949      0.0023323615   0.0026447136   20.357237      18.704737      1.6525005     -1.8537917      17799.947    
    974000   0.93472491     0.0023323615   0.0041905756   20.077623      18.689557      1.3880665     -1.85488        17703.032    
    975000   1.0979384      0.0023323615   0.0021318094   20.396222      18.765783      1.6304386     -1.8002358      17881.748    
    976000   1.0539996      0.0023323615  -0.0033479559   20.272631      18.707441      1.5651894     -2.0014412      17859.444    
    977000   1.0609141      0.0023323615  -0.00040662411  20.165067      18.589609      1.5754574     -1.9769817      17668.276    
    978000   0.98168133     0.0023323615  -0.0036046615   20.215624      18.757827      1.4577968     -1.7173767      17873.138    
    979000   1.0852576      0.0023323615  -0.00092320302  20.291232      18.679625      1.6116075     -1.8523306      17879.512    
    980000   1.0193067      0.0023323615   0.0037175221   20.246519      18.732848      1.5136704     -1.7404578      18034.647    
    981000   0.97807151     0.0023323615  -0.00073252361  20.280533      18.828097      1.4524362     -1.7425781      18001.951    
    982000   0.85911065     0.0023323615   0.0049465481   19.994976      18.719197      1.2757793     -1.856485       17855.122    
    983000   0.97356295     0.0023323615   0.0019413519   20.5108        19.065059      1.445741      -1.4122832      17874.357    
    984000   1.0028751      0.0023323615   0.0012992186   20.250942      18.761672      1.4892696     -1.5870247      17845.107    
    985000   1.0544006      0.0023323615  -0.00037392409  20.407207      18.841422      1.5657849     -1.7410586      17987.255    
    986000   0.96070708     0.0023323615  -0.0013042412   20.151282      18.724632      1.42665       -1.7427346      18033.477    
    987000   1.0882143      0.0023323615   0.0015733208   20.418046      18.802048      1.6159982     -1.7554383      17975.519    
    988000   1.1160397      0.0023323615   0.0014190534   20.503338      18.846019      1.6573189     -1.6889597      17958.135    
    989000   0.96699434     0.0023323615  -0.0013400024   20.12478       18.688793      1.4359866     -1.7838988      18028.516    
    990000   1.0589513      0.0023323615   0.001308602    20.449412      18.876869      1.5725427     -1.5517252      18132.291    
    991000   1.0296056      0.0023323615  -0.0014969915   20.263909      18.734944      1.5289644     -1.8778941      18261.138    
    992000   1.1155271      0.0023323615   0.0018290385   19.930752      18.274194      1.6565577     -2.0989233      18016.245    
    993000   0.91273011     0.0023323615  -0.0032621803   20.292774      18.93737       1.3554042     -1.7128413      17830.689    
    994000   0.99741232     0.0023323615   0.00043200931  20.061676      18.580518      1.4811573     -1.9088464      17766.669    
    995000   0.9888252      0.0023323615  -0.00023521311  20.047966      18.579561      1.4684054     -2.0733554      17880.794    
    996000   0.95240297     0.0023323615  -0.00035175347  19.861557      18.447239      1.4143184     -2.0944448      17845.328    
    997000   1.0694647      0.0023323615  -0.002578357    20.381907      18.793752      1.5881551     -1.7755663      17729.978    
    998000   0.94669076     0.0023323615  -0.00054600021  19.971416      18.565581      1.4058358     -1.9658272      17909.817    
    999000   0.90031906     0.0023323615  -0.00030992565  19.890237      18.553263      1.3369738     -1.8889109      17919.942    
   1000000   0.98449148     0.0023323615   0.0048986286   19.897882      18.435912      1.4619698     -2.0994959      17836.66     
Loop time of 55.3819 on 1 procs for 1000000 steps with 100 atoms

Performance: 7800389.280 tau/day, 18056.457 timesteps/s
99.4% CPU use with 1 MPI tasks x 1 OpenMP threads

MPI task timing breakdown:
Section |  min time  |  avg time  |  max time  |%varavg| %total
---------------------------------------------------------------
Pair    | 46.407     | 46.407     | 46.407     |   0.0 | 83.80
Bond    | 1.2692     | 1.2692     | 1.2692     |   0.0 |  2.29
Neigh   | 3.7844     | 3.7844     | 3.7844     |   0.0 |  6.83
Comm    | 1.4004     | 1.4004     | 1.4004     |   0.0 |  2.53
Output  | 0.2163     | 0.2163     | 0.2163     |   0.0 |  0.39
Modify  | 1.9486     | 1.9486     | 1.9486     |   0.0 |  3.52
Other   |            | 0.3556     |            |       |  0.64

Nlocal:            100 ave         100 max         100 min
Histogram: 1 0 0 0 0 0 0 0 0 0
Nghost:            336 ave         336 max         336 min
Histogram: 1 0 0 0 0 0 0 0 0 0
Neighs:           4851 ave        4851 max        4851 min
Histogram: 1 0 0 0 0 0 0 0 0 0

Total # of neighbors = 4851
Ave neighs/atom = 48.51
Ave special neighs/atom = 1.98
Neighbor list builds = 97763
Dangerous builds = 78953

write_data      ${outputfile_assembled} nofix nocoeff
write_data      7_assembled.data nofix nocoeff
System init for write_data ...
Generated 0 of 6 mixed pair_coeff terms from geometric mixing rule

Total wall time: 0:00:56
