LAMMPS data file via write_data, version 23 Jun 2022, timestep = 0

20 atoms
4 atom types
19 bonds
1 bond types

0 35 xlo xhi
0 35 ylo yhi
0 35 zlo zhi

Masses

1 1
2 1
3 1
4 1

Pair Coeffs # soft

1 300
2 300
3 300
4 300

Bond Coeffs # fene

1 30 1.5 1 1

Atoms # full

4 1 4 1 15.15123593849322 32.330364642805876 24.03228269903232 0 0 0
6 1 2 0 15.560271492337916 31.561161155247508 25.15492132895757 0 0 0
1 1 1 0 12.911992285201034 32.64073023506593 24.718088362361357 0 0 0
3 1 4 1 14.573129420459084 32.196940998644195 24.748288986484116 0 0 0
2 1 2 0 13.853970267575212 32.841206387818836 24.820390348116018 0 0 0
5 1 1 0 16.03571614059631 32.17733240117697 24.59822982557542 0 0 0
8 1 3 -1 13.816599165474098 30.813846959806227 24.979410296875034 0 0 0
7 1 3 -1 14.791050607791565 30.97224194049813 25.20426420141137 0 0 0
9 1 2 0 13.514122181255308 31.106471841877045 25.915496100084432 0 0 0
11 1 1 0 12.306789659480962 32.16514936434788 26.860111834753905 0 0 0
10 1 1 0 12.71205151845891 31.569636854934224 26.272060105630707 0 0 0
12 1 2 0 12.212576178560917 33.12241134815754 27.341043975962183 0 0 0
16 1 2 0 9.23291919800941 33.75565078409639 27.85181250047657 0 0 0
17 1 3 -1 8.498410834741941 34.38819822143237 27.529730456329823 0 0 0
14 1 1 0 10.81456002795144 33.839942551032145 27.427243503397943 0 0 0
13 1 2 0 11.36597143256183 33.261748542427625 26.87925838554194 0 0 0
18 1 4 1 8.974063352749916 0.1100449672703934 27.941494491500904 0 1 0
15 1 1 0 10.058842415338125 33.250746960556725 27.585627784471097 0 0 0
19 1 1 0 8.816427885554608 34.43494998112702 28.63770385559721 0 0 0
20 1 2 0 9.40307173458352 34.052809747182074 29.28651928171264 0 0 0

Velocities

4 -0.1055051564127938 0.6856778442524069 -2.1164181840328182
6 -1.1971665945586079 0.5267592140742856 0.7168305936529525
1 -1.6983112817762402 1.2578562836551832 0.779409391132677
3 0.8385217607263395 0.20680828888397185 -0.2629261514519366
2 0.7805427749994018 0.9368375527728283 -0.22518166595809247
5 2.082298005527812 -2.3872002393119516 -0.048276524610186625
8 -0.8589653775490133 -1.042193673644906 -0.17426333526817225
7 2.7038103124432884 -0.09543400516632931 0.5004789361694413
9 0.07456995947042398 0.009402284912771541 -0.25267758742522
11 1.3382386678843878 0.7470623906585152 0.9451079522473061
10 -0.8939932219673626 -0.1368436334743195 -0.8215470722011706
12 -1.9450717465630156 -0.30227085614165383 -0.31427307123310255
16 -1.502700974243278 1.0033794851910633 0.14660399890443687
17 0.407598596768041 -0.007779925763560934 0.7262732869065136
14 1.1213219721176444 0.3121480872397986 0.6664751397695442
13 1.4044236843630569 -2.137234033913071 -0.6286446443838103
18 -1.0345797255836222 -1.275107829975611 1.0127259354020721
15 -1.2791491585433175 0.18997774843946794 -0.522975850312544
19 -0.6316402936570205 -0.20446717622999672 0.012217717750142408
20 0.39575779655414073 1.7126221935410497 -0.13893886505818842

Bonds

1 1 4 5
2 1 6 7
3 1 1 2
4 1 3 4
5 1 2 3
6 1 5 6
7 1 8 9
8 1 7 8
9 1 9 10
10 1 11 12
11 1 10 11
12 1 12 13
13 1 16 17
14 1 17 18
15 1 14 15
16 1 13 14
17 1 18 19
18 1 15 16
19 1 19 20
