LAMMPS (23 Jun 2022 - Update 1)
OMP_NUM_THREADS environment is not set. Defaulting to 1 thread. (src/comm.cpp:98)
  using 1 OpenMP thread(s) per MPI task


variable		outputfile_created string '1_a_created.data'
variable		outputfile_relaxed string '2_relaxed.data'
variable		outputfile_selfasb string '3_a_self_assemble.lammpstrj'
variable		outputfile_trajlin string '3_b_trajlin.data'
variable		outputfile_assembled string '4_assembled.data'

units           lj
atom_style      full
dimension       3
boundary        p p p
timestep        0.005

read_data       ${outputfile_created}
read_data       1_a_created.data
Reading data file ...
  orthogonal box = (0 0 0) to (35 35 35)
  1 by 1 by 1 MPI processor grid
  reading atoms ...
  20 atoms
  reading velocities ...
  20 velocities
  scanning bonds ...
  1 = max bonds/atom
  reading bonds ...
  19 bonds
Finding 1-2 1-3 1-4 neighbors ...
  special bond factors lj:    0        0        0       
  special bond factors coul:  0        0        0       
     2 = max # of 1-2 neighbors
     2 = max # of 1-3 neighbors
     4 = max # of 1-4 neighbors
     6 = max # of special neighbors
  special bonds CPU = 0.000 seconds
  read_data CPU = 0.007 seconds

bond_style      fene
bond_coeff      * 30.0 1.5 1.0 1.0
special_bonds   fene
Finding 1-2 1-3 1-4 neighbors ...
  special bond factors lj:    0        1        1       
  special bond factors coul:  0        1        1       
     2 = max # of 1-2 neighbors
     6 = max # of special neighbors
  special bonds CPU = 0.000 seconds

variable        runtime equal 1000000
variable        Temp equal 1.0
variable        velSeed equal 926458

velocity        all create ${Temp} ${velSeed}
velocity        all create 1 ${velSeed}
velocity        all create 1 926458

### Output
thermo_style    custom step temp density press etotal pe ke epair spcpu
thermo          1000

###########################################################################
# Soft relaxation (to remove overlaps of particles)
######################################################################

pair_style      soft 1.0
pair_coeff      * * 0.0
variable        prefactor equal ramp(0,300)
fix             rampSoft all adapt 1 pair soft a * * v_prefactor

minimize        0.0 1.0e-8 1000 100000
WARNING: Using 'neigh_modify every 1 delay 0 check yes' setting during minimization (src/min.cpp:187)
Generated 0 of 6 mixed pair_coeff terms from geometric mixing rule
Neighbor list info ...
  update every 1 steps, delay 0 steps, check yes
  max neighbors/atom: 2000, page size: 100000
  master list distance cutoff = 1.3
  ghost atom cutoff = 1.3
  binsize = 0.65, bins = 54 54 54
  1 neighbor lists, perpetual/occasional/extra = 1 0 0
  (1) pair soft, perpetual
      attributes: half, newton on
      pair build: half/bin/newton
      stencil: half/bin/3d
      bin: standard
WARNING: Communication cutoff 1.3 is shorter than a bond length based estimate of 1.7550000000000001. This may lead to errors. (src/comm.cpp:727)
Per MPI rank memory allocation (min/avg/max) = 8.344 | 8.344 | 8.344 Mbytes
   Step          Temp         Density         Press          TotEng         PotEng         KinEng         E_pair         S/CPU     
         0   1              0.0004664723  -0.00076034465  20.654511      19.229511      1.425          0              0            
        78   1              0.0004664723   0.00044314869  20.617445      19.192445      1.425          0              153200.72    
Loop time of 0.000523052 on 1 procs for 78 steps with 20 atoms

32.3% CPU use with 1 MPI tasks x 1 OpenMP threads

Minimization stats:
  Stopping criterion = force tolerance
  Energy initial, next-to-last, final = 
      19.2295105075496   19.1924451241383   19.1924451241383
  Force two-norm initial, final = 11.878422 5.2971227e-09
  Force max component initial, final = 6.6117807 1.7379241e-09
  Final line search alpha, max atom move = 1 1.7379241e-09
  Iterations, force evaluations = 78 156

MPI task timing breakdown:
Section |  min time  |  avg time  |  max time  |%varavg| %total
---------------------------------------------------------------
Pair    | 2.0271e-05 | 2.0271e-05 | 2.0271e-05 |   0.0 |  3.88
Bond    | 0.0001355  | 0.0001355  | 0.0001355  |   0.0 | 25.91
Neigh   | 0.00023564 | 0.00023564 | 0.00023564 |   0.0 | 45.05
Comm    | 2.8401e-05 | 2.8401e-05 | 2.8401e-05 |   0.0 |  5.43
Output  | 0          | 0          | 0          |   0.0 |  0.00
Modify  | 0          | 0          | 0          |   0.0 |  0.00
Other   |            | 0.0001032  |            |       | 19.74

Nlocal:             20 ave          20 max          20 min
Histogram: 1 0 0 0 0 0 0 0 0 0
Nghost:              7 ave           7 max           7 min
Histogram: 1 0 0 0 0 0 0 0 0 0
Neighs:              0 ave           0 max           0 min
Histogram: 1 0 0 0 0 0 0 0 0 0

Total # of neighbors = 0
Ave neighs/atom = 0
Ave special neighs/atom = 1.9
Neighbor list builds = 3
Dangerous builds = 0

fix             nvtSoft all nvt temp ${Temp} ${Temp} 0.5
fix             nvtSoft all nvt temp 1 ${Temp} 0.5
fix             nvtSoft all nvt temp 1 1 0.5
run             100000
Generated 0 of 6 mixed pair_coeff terms from geometric mixing rule
WARNING: Communication cutoff 1.3 is shorter than a bond length based estimate of 1.7550000000000001. This may lead to errors. (src/comm.cpp:727)
Per MPI rank memory allocation (min/avg/max) = 7.219 | 7.219 | 7.219 Mbytes
   Step          Temp         Density         Press          TotEng         PotEng         KinEng         E_pair         S/CPU     
        78   1              0.0004664723   0.00044314869  20.617445      19.192445      1.425          0              0            
      1000   0.77543841     0.0004664723  -0.0012026657   20.958329      19.85333       1.1049997      0.073319147    113954.63    
      2000   0.85298763     0.0004664723   0.001030718    20.788584      19.573076      1.2155074      0              109330.63    
      3000   0.79706676     0.0004664723   0.00082096535  20.784683      19.648863      1.1358201      0              113819.86    
      4000   0.84842105     0.0004664723  -0.00063266649  20.965738      19.756738      1.209          0.030498084    108551.79    
      5000   1.0290601      0.0004664723  -0.0016786282   21.144627      19.678216      1.4664106      0              114357.28    
      6000   1.0609617      0.0004664723   0.00078446302  21.058958      19.547087      1.5118704      0              113755.91    
      7000   0.78954233     0.0004664723  -0.00028673212  20.692306      19.567208      1.1250978      0              110281.28    
      8000   0.85199116     0.0004664723   0.0004627235   20.810547      19.596459      1.2140874      0.10063924     116716.31    
      9000   0.96553439     0.0004664723  -0.00016746495  20.939958      19.564071      1.3758865      0.016150463    110795.2     
     10000   0.7374526      0.0004664723   0.0005849825   20.777853      19.726983      1.05087        0.21727352     110935.32    
     11000   1.0577779      0.0004664723  -0.00015240197  21.108963      19.60163       1.5073335      0              110239.63    
     12000   0.96925683     0.0004664723  -0.00050725377  20.835576      19.454385      1.381191       0              110322.12    
     13000   0.74928169     0.0004664723   0.00029026622  20.529949      19.462223      1.0677264      0.0042495188   106778.51    
     14000   1.0451674      0.0004664723  -0.00073613156  21.049746      19.560383      1.4893635      0.0010294124   117071.97    
     15000   0.84523661     0.0004664723  -0.00067050564  21.070571      19.866109      1.2044622      0              110691.23    
     16000   1.1810068      0.0004664723   0.0014905715   21.209045      19.52611       1.6829347      0.001559852    115976.77    
     17000   1.0015869      0.0004664723   0.0023193532   20.91297       19.485708      1.4272614      0.0035225107   108228.35    
     18000   1.0475824      0.0004664723   0.0007440731   21.051059      19.558254      1.4928049      0.046646448    112820.86    
     19000   0.96630112     0.0004664723   0.00068177431  21.126394      19.749415      1.3769791      0              111903.57    
     20000   0.99391656     0.0004664723  -0.00088261215  21.330679      19.914348      1.4163311      0              112132.39    
     21000   1.2101008      0.0004664723   0.0012673593   21.434368      19.709974      1.7243936      0              114361.99    
     22000   0.80467142     0.0004664723  -0.00041195634  21.258694      20.112037      1.1466568      0.0014192015   114055.66    
     23000   0.93563411     0.0004664723  -0.0010856979   21.022903      19.689625      1.3332786      0.030521705    118384.3     
     24000   1.0697245      0.0004664723   0.00035802301  21.366434      19.842077      1.5243573      0.051893832    111762.24    
     25000   1.2648431      0.0004664723  -0.00037658282  21.499699      19.697297      1.8024015      0.026125049    107063.02    
     26000   1.0691046      0.0004664723   0.0007487213   21.255751      19.732277      1.5234741      0.075889953    111788.52    
     27000   1.2554807      0.0004664723  -0.00083096077  21.408457      19.619396      1.78906        0.0083043633   106155.28    
     28000   1.2976375      0.0004664723   0.00091643005  21.288833      19.439699      1.8491335      0              112613.01    
     29000   1.0787299      0.0004664723  -0.00030141663  21.253216      19.716026      1.5371901      0.01138894     114702.23    
     30000   0.86288887     0.0004664723  -0.00077497865  21.230867      20.001251      1.2296166      0              117296.08    
     31000   0.99532322     0.0004664723  -0.00064521795  21.083375      19.665039      1.4183356      0.021613812    113012.37    
     32000   0.99305835     0.0004664723  -0.0011316286   21.188187      19.773079      1.4151081      0.055204936    114541.79    
     33000   0.86825815     0.0004664723   0.0014310876   20.778529      19.541262      1.2372679      0              110367       
     34000   0.52711646     0.0004664723   0.00025956945  20.485554      19.734413      0.75114096     0.1007458      108870.05    
     35000   0.90441378     0.0004664723   0.000184781    20.915884      19.627095      1.2887896      0              116630.4     
     36000   0.77316531     0.0004664723   0.00028213561  21.038121      19.93636       1.1017606      0.00087040701  111374.64    
     37000   1.093566       0.0004664723   0.00028584024  21.250496      19.692164      1.5583316      0              111646.11    
     38000   1.1492257      0.0004664723   0.0012260192   21.385457      19.74781       1.6376466      0.005645322    121998.58    
     39000   1.2662845      0.0004664723  -0.00056177276  21.52052       19.716064      1.8044554      0.043957733    115323.4     
     40000   1.0091303      0.0004664723   0.00098364794  21.176886      19.738875      1.4380107      0              126219.41    
     41000   1.2783109      0.0004664723  -0.00025492352  21.329279      19.507686      1.821593       0              116459.05    
     42000   1.1490338      0.0004664723   0.0010130984   21.359957      19.722584      1.6373732      0.0012015503   110673.68    
     43000   0.93433812     0.0004664723   0.00092296684  21.09973       19.768298      1.3314318      0              117163.92    
     44000   0.81467625     0.0004664723   7.6027033e-05  21.041177      19.880263      1.1609137      0.00098359013  113161.75    
     45000   0.92883205     0.0004664723  -0.0013807686   20.969765      19.646179      1.3235857      0              116047.16    
     46000   1.2795144      0.0004664723  -0.0024173471   21.719668      19.89636       1.8233081      0              114267.2     
     47000   1.098349       0.0004664723   0.00084691902  21.282031      19.716883      1.5651473      0.0092641495   116947.42    
     48000   0.96535824     0.0004664723   0.00047871159  21.20834       19.832705      1.3756355      0.0029159117   116715.49    
     49000   1.1384331      0.0004664723   0.0020524295   21.46055       19.838283      1.6222671      0              121833.89    
     50000   1.4276231      0.0004664723  -2.2115705e-05  21.974475      19.940112      2.034363       0              122673.75    
     51000   1.0131019      0.0004664723  -0.0010899611   21.370795      19.927125      1.4436703      0.001322607    110506.44    
     52000   1.3289687      0.0004664723   0.0021436516   21.904984      20.011204      1.8937805      0              117857.57    
     53000   1.3473415      0.0004664723  -0.00043639966  21.370727      19.450766      1.9199616      0              111798.66    
     54000   1.1857024      0.0004664723   0.00034136929  21.513672      19.824046      1.689626       0.025034878    112197.56    
     55000   1.1065871      0.0004664723   0.00066424559  21.350047      19.77316       1.5768866      0.12703273     110873.47    
     56000   0.67825044     0.0004664723  -0.000254962    20.594784      19.628277      0.96650687     0              109754.15    
     57000   0.92534307     0.0004664723  -0.00024944871  21.209209      19.890595      1.3186139      0              112681.53    
     58000   0.89510902     0.0004664723   0.00033787409  21.024097      19.748567      1.2755303      0              116496.15    
     59000   0.78251244     0.0004664723  -0.0011312039   20.665255      19.550175      1.1150802      0              115589.3     
     60000   0.95881059     0.0004664723   0.0004992672   20.940532      19.574227      1.3663051      0              108943.85    
     61000   0.91842828     0.0004664723  -0.00041342579  21.073322      19.764562      1.3087603      0              109962.49    
     62000   1.0349417      0.0004664723   0.0015954297   20.906333      19.431541      1.4747919      0              110997.5     
     63000   0.78503592     0.0004664723  -0.00047706157  20.688632      19.569956      1.1186762      0              115520.13    
     64000   1.0037771      0.0004664723   0.0017636166   21.34272       19.912338      1.4303824      0.046979854    116585.17    
     65000   1.077815       0.0004664723   0.00035746248  21.347933      19.812046      1.5358864      0              112929.35    
     66000   0.94480607     0.0004664723  -0.0014526671   21.438132      20.091783      1.3463487      0              117130.79    
     67000   0.78003974     0.0004664723  -0.0016035376   20.782678      19.671121      1.1115566      0              114757.1     
     68000   0.65804183     0.0004664723   0.0024140376   21.178553      20.240844      0.93770961     0.020046528    112896.93    
     69000   0.88200302     0.0004664723  -0.00010160054  20.777007      19.520153      1.2568543      0              121837.3     
     70000   0.98318096     0.0004664723  -0.0013620448   21.355102      19.954069      1.4010329      0              122335.91    
     71000   1.330652       0.0004664723   0.0012782854   21.538656      19.642477      1.8961791      0              108156.11    
     72000   1.2920881      0.0004664723  -0.00036387559  21.799165      19.957939      1.8412256      0              116838.85    
     73000   1.1709316      0.0004664723  -0.00064386686  21.269571      19.600994      1.6685775      0.013323499    113772.9     
     74000   1.0579435      0.0004664723   0.00036746765  21.090066      19.582497      1.5075694      0.030973895    113134.94    
     75000   1.0928413      0.0004664723   0.00039599875  21.29193       19.734631      1.5572989      0              109788.67    
     76000   1.0119981      0.0004664723  -0.00047870938  20.988768      19.546671      1.4420972      0.0014259486   111892.04    
     77000   0.90323099     0.0004664723   0.0013181732   20.973331      19.686226      1.2871042      0              110523.56    
     78000   1.0720514      0.0004664723   0.0014537816   20.994559      19.466886      1.5276733      0              115183.53    
     79000   0.98038764     0.0004664723  -0.0018205241   21.230233      19.83318       1.3970524      0              115907.02    
     80000   1.0815309      0.0004664723  -0.00053437917  21.353303      19.812121      1.5411816      0              109850.66    
     81000   1.1211832      0.0004664723  -0.00048460611  21.452658      19.854972      1.5976861      0.01996015     118858.53    
     82000   0.90191122     0.0004664723  -0.00047009149  20.819539      19.534315      1.2852235      0              118368.55    
     83000   0.8238813      0.0004664723  -0.0010845314   20.927087      19.753056      1.1740309      0              112039.01    
     84000   0.91715275     0.0004664723  -0.00089500887  20.859913      19.55297       1.3069427      0              117934.85    
     85000   0.86729813     0.0004664723   0.0015978225   20.856535      19.620635      1.2358998      0.0023838186   112815.39    
     86000   1.2771309      0.0004664723  -7.6092283e-05  21.984906      20.164994      1.8199116      0              124287.01    
     87000   1.3574928      0.0004664723  -0.0016450466   21.607338      19.67291       1.9344272      0.0038547831   105635.55    
     88000   1.1118419      0.0004664723   0.00062880699  21.41074       19.826366      1.5843748      0              118299.54    
     89000   0.8073656      0.0004664723   0.0010324982   21.00144       19.850944      1.150496       0.062406267    116261.95    
     90000   1.002119       0.0004664723  -0.0013605964   21.193107      19.765087      1.4280195      0.0050671641   112890.8     
     91000   0.97582896     0.0004664723  -2.6546607e-06  21.00211       19.611553      1.3905563      0.0034727938   109123.82    
     92000   0.89436333     0.0004664723   0.00095530607  20.828313      19.553846      1.2744677      0              118555.98    
     93000   1.0362825      0.0004664723  -0.00016601574  21.132393      19.655691      1.4767025      0.1271156      117406.6     
     94000   0.83470722     0.0004664723  -0.0011966048   20.895336      19.705878      1.1894578      0              112959.42    
     95000   1.238593       0.0004664723  -0.00099377744  21.293723      19.528728      1.7649951      0.0016963614   116269.54    
     96000   1.1155032      0.0004664723  -0.0010372965   21.545796      19.956204      1.589592       0              116784.3     
     97000   1.0281056      0.0004664723   0.002035313    21.195214      19.730163      1.4650505      0              111794.3     
     98000   0.89466824     0.0004664723  -0.0019246683   21.039684      19.764782      1.2749022      0              113036.55    
     99000   0.84362407     0.0004664723  -0.00039593337  20.756864      19.5547        1.2021643      0              120574.33    
    100000   0.74124731     0.0004664723   0.00011262414  21.119894      20.063617      1.0562774      0              112985.49    
    100078   1.1365479      0.0004664723  -0.0017754708   21.535817      19.916237      1.6195807      0              97830.545    
Loop time of 0.87868 on 1 procs for 100000 steps with 20 atoms

Performance: 49164678.512 tau/day, 113807.126 timesteps/s
99.5% CPU use with 1 MPI tasks x 1 OpenMP threads

MPI task timing breakdown:
Section |  min time  |  avg time  |  max time  |%varavg| %total
---------------------------------------------------------------
Pair    | 0.018017   | 0.018017   | 0.018017   |   0.0 |  2.05
Bond    | 0.032699   | 0.032699   | 0.032699   |   0.0 |  3.72
Neigh   | 0.58853    | 0.58853    | 0.58853    |   0.0 | 66.98
Comm    | 0.035612   | 0.035612   | 0.035612   |   0.0 |  4.05
Output  | 0.0019094  | 0.0019094  | 0.0019094  |   0.0 |  0.22
Modify  | 0.17418    | 0.17418    | 0.17418    |   0.0 | 19.82
Other   |            | 0.02773    |            |       |  3.16

Nlocal:             20 ave          20 max          20 min
Histogram: 1 0 0 0 0 0 0 0 0 0
Nghost:              6 ave           6 max           6 min
Histogram: 1 0 0 0 0 0 0 0 0 0
Neighs:              3 ave           3 max           3 min
Histogram: 1 0 0 0 0 0 0 0 0 0

Total # of neighbors = 3
Ave neighs/atom = 0.15
Ave special neighs/atom = 1.9
Neighbor list builds = 8401
Dangerous builds = 2322
unfix           nvtSoft
unfix           rampSoft
reset_timestep  0

write_data      ${outputfile_relaxed}
write_data      2_relaxed.data
System init for write_data ...
Generated 0 of 6 mixed pair_coeff terms from geometric mixing rule
WARNING: Communication cutoff 1.3 is shorter than a bond length based estimate of 1.7550000000000001. This may lead to errors. (src/comm.cpp:727)
WARNING: Not all mixed pair coeffs generated from mixing. Use write_data with 'pair ij' option to store all pair coeffs. (src/write_data.cpp:309)

###########################################################################
# Full LJ with Coulomb
######################################################################

# Cutoffs and parameters:
# - Values: Marcel Verkade's Bachelor Thesis
# - Mapping to atom groups: Patrick Onck's paper
# - 1: aliphatic, 2: aromatic, 3: anion, 4: cation
# pair_style	lj/cut/coul/cut <lj_cut_global> <coul_cut_global>
# pair_coeff	<type_1>  <type_2>  <eps>  <sigma>  <r_cut_lj>  <r_cut_coul>

# Problem: Onck's model is much more complex, and Marcel has no sigma reported
# Using sigma=1 randomly

variable		glob_ljeps equal 1.0
variable		glob_ljsig 	equal 1.0
variable		glob_coulcut equal 10.0
variable		att_ljcut equal 2.50
variable		rep_ljcut equal 1.12

pair_style		lj/cut/coul/cut 						${att_ljcut} 	${glob_coulcut}
pair_style		lj/cut/coul/cut 						2.5 	${glob_coulcut}
pair_style		lj/cut/coul/cut 						2.5 	10
pair_coeff		1 1 	${glob_ljeps} 	${glob_ljsig}	${att_ljcut} 	${glob_coulcut}
pair_coeff		1 1 	1 	${glob_ljsig}	${att_ljcut} 	${glob_coulcut}
pair_coeff		1 1 	1 	1	${att_ljcut} 	${glob_coulcut}
pair_coeff		1 1 	1 	1	2.5 	${glob_coulcut}
pair_coeff		1 1 	1 	1	2.5 	10
pair_coeff		1 2 	${glob_ljeps} 	${glob_ljsig}	${att_ljcut} 	${glob_coulcut}
pair_coeff		1 2 	1 	${glob_ljsig}	${att_ljcut} 	${glob_coulcut}
pair_coeff		1 2 	1 	1	${att_ljcut} 	${glob_coulcut}
pair_coeff		1 2 	1 	1	2.5 	${glob_coulcut}
pair_coeff		1 2 	1 	1	2.5 	10
pair_coeff		1 3 	${glob_ljeps} 	${glob_ljsig}	${rep_ljcut} 	${glob_coulcut}
pair_coeff		1 3 	1 	${glob_ljsig}	${rep_ljcut} 	${glob_coulcut}
pair_coeff		1 3 	1 	1	${rep_ljcut} 	${glob_coulcut}
pair_coeff		1 3 	1 	1	1.12 	${glob_coulcut}
pair_coeff		1 3 	1 	1	1.12 	10
pair_coeff		1 4 	${glob_ljeps} 	${glob_ljsig}	${rep_ljcut} 	${glob_coulcut}
pair_coeff		1 4 	1 	${glob_ljsig}	${rep_ljcut} 	${glob_coulcut}
pair_coeff		1 4 	1 	1	${rep_ljcut} 	${glob_coulcut}
pair_coeff		1 4 	1 	1	1.12 	${glob_coulcut}
pair_coeff		1 4 	1 	1	1.12 	10
pair_coeff		2 2 	${glob_ljeps} 	${glob_ljsig}	${att_ljcut} 	${glob_coulcut}
pair_coeff		2 2 	1 	${glob_ljsig}	${att_ljcut} 	${glob_coulcut}
pair_coeff		2 2 	1 	1	${att_ljcut} 	${glob_coulcut}
pair_coeff		2 2 	1 	1	2.5 	${glob_coulcut}
pair_coeff		2 2 	1 	1	2.5 	10
pair_coeff		2 3 	${glob_ljeps} 	${glob_ljsig}	${rep_ljcut} 	${glob_coulcut}
pair_coeff		2 3 	1 	${glob_ljsig}	${rep_ljcut} 	${glob_coulcut}
pair_coeff		2 3 	1 	1	${rep_ljcut} 	${glob_coulcut}
pair_coeff		2 3 	1 	1	1.12 	${glob_coulcut}
pair_coeff		2 3 	1 	1	1.12 	10
pair_coeff		2 4 	${glob_ljeps} 	${glob_ljsig}	${att_ljcut} 	${glob_coulcut}
pair_coeff		2 4 	1 	${glob_ljsig}	${att_ljcut} 	${glob_coulcut}
pair_coeff		2 4 	1 	1	${att_ljcut} 	${glob_coulcut}
pair_coeff		2 4 	1 	1	2.5 	${glob_coulcut}
pair_coeff		2 4 	1 	1	2.5 	10
pair_coeff		3 3 	${glob_ljeps} 	${glob_ljsig}	${rep_ljcut} 	${glob_coulcut}
pair_coeff		3 3 	1 	${glob_ljsig}	${rep_ljcut} 	${glob_coulcut}
pair_coeff		3 3 	1 	1	${rep_ljcut} 	${glob_coulcut}
pair_coeff		3 3 	1 	1	1.12 	${glob_coulcut}
pair_coeff		3 3 	1 	1	1.12 	10
pair_coeff		3 4 	${glob_ljeps} 	${glob_ljsig}	${att_ljcut} 	${glob_coulcut}
pair_coeff		3 4 	1 	${glob_ljsig}	${att_ljcut} 	${glob_coulcut}
pair_coeff		3 4 	1 	1	${att_ljcut} 	${glob_coulcut}
pair_coeff		3 4 	1 	1	2.5 	${glob_coulcut}
pair_coeff		3 4 	1 	1	2.5 	10
pair_coeff		4 4 	${glob_ljeps} 	${glob_ljsig}	${rep_ljcut} 	${glob_coulcut}
pair_coeff		4 4 	1 	${glob_ljsig}	${rep_ljcut} 	${glob_coulcut}
pair_coeff		4 4 	1 	1	${rep_ljcut} 	${glob_coulcut}
pair_coeff		4 4 	1 	1	1.12 	${glob_coulcut}
pair_coeff		4 4 	1 	1	1.12 	10


fix             noDrift 	all momentum 10 linear 1 1 1
fix             nvt1 		all nvt temp ${Temp} ${Temp} 0.5
fix             nvt1 		all nvt temp 1 ${Temp} 0.5
fix             nvt1 		all nvt temp 1 1 0.5

dump            assemble 	all custom 1000 	${outputfile_selfasb} id type xu yu zu vx vy vz
dump            assemble 	all custom 1000 	3_a_self_assemble.lammpstrj id type xu yu zu vx vy vz
dump            lindump 	all custom 10000 	${outputfile_trajlin} id type xu yu zu vx vy vz
dump            lindump 	all custom 10000 	3_b_trajlin.data id type xu yu zu vx vy vz

run             ${runtime}
run             1000000
Generated 0 of 6 mixed pair_coeff terms from geometric mixing rule
Neighbor list info ...
  update every 1 steps, delay 10 steps, check yes
  max neighbors/atom: 2000, page size: 100000
  master list distance cutoff = 10.3
  ghost atom cutoff = 10.3
  binsize = 5.15, bins = 7 7 7
  1 neighbor lists, perpetual/occasional/extra = 1 0 0
  (1) pair lj/cut/coul/cut, perpetual
      attributes: half, newton on
      pair build: half/bin/newton
      stencil: half/bin/3d
      bin: standard
Per MPI rank memory allocation (min/avg/max) = 8.945 | 8.945 | 8.945 Mbytes
   Step          Temp         Density         Press          TotEng         PotEng         KinEng         E_pair         S/CPU     
         0   1.1365479      0.0004664723  -0.0020091936   21.096108      19.476527      1.6195807     -0.43970976     0            
      1000   1.468685       0.0004664723  -0.00069820633  21.031116      18.93824       2.0928762     -0.84466638     199553.52    
      2000   1.117759       0.0004664723   0.001042907    20.180268      18.587461      1.5928066     -1.3224413      203607.14    
      3000   1.1788797      0.0004664723   9.9551518e-05  20.904556      19.224652      1.6799035     -0.59361144     203734.7     
      4000   1.288488       0.0004664723  -0.00082468392  20.871964      19.035869      1.8360954     -0.73021081     197479.53    
      5000   1.2660373      0.0004664723   0.0011648816   20.538685      18.734582      1.8041031     -0.96186879     204185.64    
      6000   1.0407913      0.0004664723   0.0006609849   20.360118      18.876991      1.4831275     -0.81424794     208488.74    
      7000   0.74247426     0.0004664723  -0.00099167466  19.465262      18.407236      1.0580258     -1.0478288      210934.86    
      8000   1.1109052      0.0004664723   0.00036514141  20.672078      19.089038      1.5830399     -0.67637461     206921.01    
      9000   1.0545534      0.0004664723  -0.00074203686  20.00829       18.505551      1.5027386     -1.19904        212264.97    
     10000   0.93867514     0.0004664723   5.4627736e-05  19.800023      18.462411      1.3376121     -0.94713444     204575.7     
     11000   0.94034664     0.0004664723   0.00065482715  19.990059      18.650065      1.339994      -1.0659396      209813.08    
     12000   0.9746423      0.0004664723   0.00030391527  20.226922      18.838056      1.3888653     -0.80979964     206196.45    
     13000   1.1391465      0.0004664723   8.3044122e-05  20.292412      18.669128      1.6232837     -1.0448669      214791.95    
     14000   1.0174599      0.0004664723   0.00089493918  19.597334      18.147454      1.4498803     -1.3019954      207868.18    
     15000   1.0191744      0.0004664723   0.0034097809   19.639514      18.18719       1.4523235     -1.4486619      208742.86    
     16000   1.0074842      0.0004664723   0.00099807668  20.208714      18.773049      1.435665      -0.98960697     207230.35    
     17000   0.90847478     0.0004664723   0.00063317522  20.415118      19.120541      1.2945766     -1.0148793      217053.08    
     18000   1.1849755      0.0004664723   6.939612e-06   20.379236      18.690646      1.6885901     -0.97356186     206984.1     
     19000   1.0128991      0.0004664723   0.0013525338   20.533817      19.090436      1.4433812     -0.6899954      207826.63    
     20000   1.1188742      0.0004664723   0.00016902295  19.879979      18.285583      1.5943957     -1.2795964      206072.59    
     21000   1.0407393      0.0004664723  -0.00046841244  20.226908      18.743855      1.4830535     -0.89297032     207417.2     
     22000   1.0454225      0.0004664723  -0.00038232861  20.363145      18.873418      1.4897271     -0.8435554      202764.61    
     23000   0.93290008     0.0004664723  -0.00025103178  19.726929      18.397546      1.3293826     -1.1994987      205629.35    
     24000   0.88973481     0.0004664723   0.0007423513   20.003873      18.736001      1.2678721     -1.1927258      204678.5     
     25000   0.87132442     0.0004664723   0.00059266932  19.870324      18.628686      1.2416373     -1.3425353      203411.25    
     26000   1.0221815      0.0004664723  -0.0027643978   20.184365      18.727756      1.4566087     -1.0785986      210977.27    
     27000   1.0399347      0.0004664723   0.0018690061   20.515049      19.033142      1.481907      -0.63661163     204758.67    
     28000   0.8812326      0.0004664723   0.00081775081  19.838582      18.582826      1.2557565     -0.96315893     208961.39    
     29000   0.76715187     0.0004664723  -0.0011227414   19.817705      18.724514      1.0931914     -1.1092722      206161.13    
     30000   1.0907227      0.0004664723  -0.0010305694   20.348043      18.793764      1.5542798     -0.8256806      200540.66    
     31000   0.79525127     0.0004664723  -0.00017186372  20.293986      19.160753      1.1332331     -0.51821608     200436.27    
     32000   1.1328245      0.0004664723   0.00084726268  20.119406      18.505132      1.6142749     -1.0122948      205980.31    
     33000   0.81635179     0.0004664723   0.00024214502  19.513675      18.350374      1.1633013     -1.2212682      205405.11    
     34000   0.96431472     0.0004664723  -7.113041e-05   19.738623      18.364474      1.3741485     -1.3361023      216064.01    
     35000   0.67704138     0.0004664723  -0.00097592839  19.843618      18.878834      0.96478396    -1.2949176      206951.07    
     36000   0.79134497     0.0004664723  -0.00015961267  20.170838      19.043171      1.1276666     -0.98327084     208756.81    
     37000   1.1028859      0.0004664723   0.00020657953  20.368742      18.797129      1.5716124     -1.0051009      206431.03    
     38000   1.3263109      0.0004664723   0.0028514201   20.476977      18.586984      1.889993      -1.181793       213530.03    
     39000   1.0635298      0.0004664723  -0.00045596046  19.622937      18.107407      1.51553       -1.4217966      205051.06    
     40000   0.82505623     0.0004664723  -0.00041545279  20.039068      18.863363      1.1757051     -0.89421775     206286.8     
     41000   1.0819062      0.0004664723  -0.0012615049   20.196211      18.654495      1.5417163     -0.97498068     200941.53    
     42000   0.87011477     0.0004664723   0.00040561829  20.325643      19.085729      1.2399135     -0.71261726     204841.05    
     43000   0.95574892     0.0004664723   0.0001965663   19.671063      18.30912       1.3619422     -1.0966178      207528.08    
     44000   0.79787509     0.0004664723   5.9022637e-05  19.952656      18.815684      1.136972      -0.94605639     205082.22    
     45000   1.2698117      0.0004664723   0.00057885107  20.460486      18.651004      1.8094816     -0.82973748     202725.03    
     46000   1.1411979      0.0004664723   0.00070838964  20.773818      19.147611      1.626207      -0.76474493     199381.76    
     47000   1.092881       0.0004664723   0.00021179822  20.728515      19.17116       1.5573554     -0.77293535     204853.22    
     48000   0.97854016     0.0004664723   9.9598777e-05  19.973775      18.579355      1.3944197     -1.1024158      201736.34    
     49000   1.241007       0.0004664723   0.00076976792  20.739874      18.971439      1.768435      -0.91054938     204228.3     
     50000   0.85279063     0.0004664723  -0.0017097345   19.551378      18.336151      1.2152266     -1.3121708      203883.7     
     51000   1.0033103      0.0004664723   0.00065413816  20.033441      18.603724      1.4297171     -0.95320517     207015.42    
     52000   0.80834977     0.0004664723   0.00015319285  20.382016      19.230118      1.1518984     -0.87934012     212758.58    
     53000   1.1376351      0.0004664723   0.0026826657   20.525053      18.903923      1.62113       -0.61992547     211607.92    
     54000   0.92408109     0.0004664723   0.0003457692   19.994803      18.677987      1.3168156     -1.0721643      202619.71    
     55000   0.92202373     0.0004664723   0.000536259    19.908705      18.594821      1.3138838     -1.1304201      206594.67    
     56000   1.4705343      0.0004664723   0.00022056769  20.594267      18.498756      2.0955114     -1.1032593      209236.01    
     57000   1.0932586      0.0004664723  -0.0002141993   20.556869      18.998975      1.5578935     -0.5182641      208290.72    
     58000   0.93665602     0.0004664723  -0.0026925117   20.327628      18.992893      1.3347348     -0.76072395     209548.32    
     59000   1.7489246      0.0004664723   0.0018372849   20.828794      18.336576      2.4922176     -1.2714941      207412.51    
     60000   1.0173536      0.0004664723   0.00042904327  20.280566      18.830837      1.4497288     -0.75118291     203528.24    
     61000   1.2769976      0.0004664723   0.00095856393  20.521495      18.701773      1.8197216     -0.93874176     211823.48    
     62000   1.0372662      0.0004664723  -0.0020928957   20.504632      19.026527      1.4781043     -0.64918388     210686.04    
     63000   1.0184375      0.0004664723   0.00061105168  20.303198      18.851925      1.4512734     -0.86679268     208325.91    
     64000   1.1214515      0.0004664723  -0.0011508058   20.124144      18.526075      1.5980684     -1.1685309      210191.73    
     65000   1.0091546      0.0004664723  -0.00091671701  20.225481      18.787436      1.4380453     -0.77935444     207171.45    
     66000   1.0902455      0.0004664723   0.0027655789   20.365121      18.811521      1.5535998     -0.95791475     206631       
     67000   0.90456561     0.0004664723  -0.00024140479  19.714589      18.425583      1.289006      -0.94832055     205761.19    
     68000   0.9778928      0.0004664723  -0.00046177458  20.1733        18.779803      1.3934972     -0.77013019     208067.53    
     69000   0.68633063     0.0004664723  -0.001016231    20.006693      19.028671      0.97802114    -0.69787104     205117.22    
     70000   0.940454       0.0004664723   0.0013469319   20.357864      19.017717      1.340147      -0.67858579     202293.6     
     71000   0.96512451     0.0004664723  -0.00055522014  19.945999      18.570696      1.3753024     -0.96483131     212018.75    
     72000   1.0083219      0.0004664723   8.7330661e-05  20.199879      18.76302       1.4368587     -0.88412491     205088.53    
     73000   1.013468       0.0004664723  -0.00063113612  20.163769      18.719577      1.4441919     -0.92660885     200433.94    
     74000   0.76563567     0.0004664723   0.00065391383  20.217613      19.126582      1.0910308     -0.74515724     203425.4     
     75000   0.89065735     0.0004664723  -0.00013881724  19.938234      18.669048      1.2691867     -1.0527125      208932.05    
     76000   0.71369771     0.0004664723  -0.00068888877  19.462633      18.445613      1.0170192     -1.2890286      207707.27    
     77000   1.091556       0.0004664723   0.0010763301   19.953727      18.39826       1.5554673     -1.1878007      206918.87    
     78000   0.79067597     0.0004664723   0.00041719296  19.984493      18.85778       1.1267133     -0.83680321     207317.69    
     79000   0.67710364     0.0004664723   0.0015425841   19.465928      18.501055      0.96487269    -1.1657608      204052.15    
     80000   0.99609408     0.0004664723   0.00024471294  19.530301      18.110867      1.4194341     -1.3308092      206843.37    
     81000   1.1021362      0.0004664723  -0.00030327349  20.357126      18.786581      1.570544      -0.81315122     201905.3     
     82000   0.86328217     0.0004664723   0.00040346201  19.797937      18.56776       1.2301771     -1.2382435      208472.53    
     83000   0.83494232     0.0004664723   0.00074380897  20.044903      18.85511       1.1897928     -0.93129337     208686.58    
     84000   1.0031537      0.0004664723  -0.0013133132   20.726577      19.297083      1.429494      -0.87315154     203395.15    
     85000   1.4133166      0.0004664723  -0.00059626052  20.450587      18.436611      2.0139761     -1.1763296      209003.36    
     86000   0.91228662     0.0004664723  -0.00040918242  19.668321      18.368312      1.3000084     -1.2408922      204966.8     
     87000   0.94840972     0.0004664723   0.00025152374  19.732858      18.381374      1.3514839     -1.2041038      203068.24    
     88000   0.76974199     0.0004664723  -0.00044772634  19.590111      18.493229      1.0968823     -1.2147247      208248.95    
     89000   0.85820437     0.0004664723   0.0015568978   19.874999      18.652058      1.2229412     -1.0113026      214371.19    
     90000   1.0000916      0.0004664723  -0.0010099373   20.070944      18.645814      1.4251305     -1.2177807      207347.87    
     91000   1.1788087      0.0004664723  -0.0016764966   20.163314      18.483511      1.6798025     -1.1868932      216804.1     
     92000   0.73624147     0.0004664723  -0.000585976    19.63711       18.587966      1.0491441     -1.1851686      211068.29    
     93000   1.0365257      0.0004664723  -0.00045269626  20.028127      18.551077      1.4770492     -1.1408582      208434.29    
     94000   1.2310859      0.0004664723   0.00074791573  20.398417      18.64412       1.7542973     -1.0849309      205833.32    
     95000   0.7825318      0.0004664723   0.00048646905  19.486872      18.371764      1.1151078     -1.5115288      207786.81    
     96000   1.2306165      0.0004664723  -0.00088175069  20.458077      18.704448      1.7536285     -0.96854368     211639.36    
     97000   1.1883768      0.0004664723  -9.8815072e-05  20.11329       18.419853      1.6934369     -1.2207668      212705.49    
     98000   0.98924148     0.0004664723  -0.00078512625  19.730616      18.320946      1.4096691     -1.3185423      204459.63    
     99000   1.0542114      0.0004664723   0.001849309    20.213005      18.710754      1.5022512     -0.92964108     211308.25    
    100000   1.0429865      0.0004664723  -0.00099534757  20.344071      18.857816      1.4862558     -0.82271488     206988.38    
    101000   0.81200395     0.0004664723   0.00069769519  19.524326      18.36722       1.1571056     -1.1395092      210259.93    
    102000   1.1433128      0.0004664723  -0.0014536451   20.026723      18.397502      1.6292208     -1.0958655      213798.56    
    103000   1.0171523      0.0004664723  -0.0018253213   20.144994      18.695552      1.449442      -1.006595       213593.15    
    104000   0.96453027     0.0004664723  -0.00075780181  20.19483       18.820374      1.3744556     -0.92429232     205656.46    
    105000   1.0259344      0.0004664723   0.00052440705  19.857795      18.395839      1.4619565     -1.1436682      204939.07    
    106000   1.1181398      0.0004664723  -0.00084744817  21.179933      19.586584      1.5933492     -0.63026294     204181.47    
    107000   0.99966452     0.0004664723   0.0012498852   20.59113       19.166608      1.4245219     -0.67100673     206764.59    
    108000   1.2392552      0.0004664723  -0.00076923739  20.313152      18.547213      1.7659387     -1.3238711      205018.61    
    109000   1.1943078      0.0004664723  -0.0021134836   20.326827      18.624938      1.7018886     -1.1018981      205883.45    
    110000   1.2744467      0.0004664723  -0.00018558908  20.715672      18.899585      1.8160865     -0.82665343     203166.93    
    111000   0.79905729     0.0004664723  -0.0011416846   19.570689      18.432032      1.1386566     -1.1086457      206151.73    
    112000   1.123645       0.0004664723  -0.0005489516   20.080511      18.479317      1.6011941     -1.1416713      213175.3     
    113000   0.65319384     0.0004664723   8.1380231e-05  19.702351      18.77155       0.93080122    -0.91613172     212537.05    
    114000   1.1061236      0.0004664723  -0.00020596769  20.419191      18.842965      1.5762261     -0.80198772     205387.31    
    115000   1.1704278      0.0004664723   0.00078510338  20.645684      18.977825      1.6678597     -0.63066491     204066.68    
    116000   0.97332971     0.0004664723   0.00039745456  20.264529      18.877535      1.3869948     -0.83426633     207986.91    
    117000   0.89322006     0.0004664723  -0.00078183807  19.857138      18.5843        1.2728386     -0.90885038     205341.68    
    118000   0.79087092     0.0004664723   0.001736468    20.14734       19.020349      1.1269911     -0.6974598      213942       
    119000   0.97198052     0.0004664723   0.00089779993  20.04471       18.659638      1.3850722     -0.99634935     202282.97    
    120000   0.70392445     0.0004664723  -0.0028923959   19.687191      18.684098      1.0030923     -1.0425318      204123.87    
    121000   1.0012231      0.0004664723   0.00068195733  20.077208      18.650465      1.426743      -1.0857509      207838.33    
    122000   0.96928673     0.0004664723  -0.0015092888   20.053373      18.672139      1.3812336     -1.3682779      209162.88    
    123000   1.1994191      0.0004664723  -0.0015730658   20.543615      18.834442      1.7091721     -0.86976038     201403.34    
    124000   1.1672393      0.0004664723  -0.0017894727   20.770451      19.107135      1.6633159     -0.63641052     205344.63    
    125000   1.1061776      0.0004664723  -0.00066602228  20.092683      18.51638       1.5763031     -0.97334823     207899.39    
    126000   0.7786561      0.0004664723  -0.0016333545   19.761496      18.651911      1.1095849     -1.1647129      207344.39    
    127000   0.90490025     0.0004664723   0.00034546627  20.199354      18.909871      1.2894829     -1.0929558      209697.63    
    128000   0.59015595     0.0004664723  -0.00058717364  18.982423      18.141451      0.84097223    -1.350891       208682.66    
    129000   1.0315628      0.0004664723  -0.0012244655   20.40602       18.936043      1.469977      -0.7485908      207862.14    
    130000   0.98573734     0.0004664723   0.00029969412  19.684879      18.280203      1.4046757     -1.3800253      204416.5     
    131000   0.86140649     0.0004664723   0.0022309994   20.211862      18.984358      1.2275042     -0.59268025     207183.89    
    132000   0.76661636     0.0004664723   0.00093917302  19.898862      18.806434      1.0924283     -0.79308345     204140.13    
    133000   0.95234487     0.0004664723  -0.0011301903   19.508135      18.151043      1.3570914     -1.540339       205325.65    
    134000   1.1569288      0.0004664723   0.0005543289   19.951037      18.302414      1.6486235     -1.2930968      206443.81    
    135000   1.0934023      0.0004664723  -0.0017248153   20.135673      18.577575      1.5580983     -1.0938265      203400.9     
    136000   0.79050319     0.0004664723   0.0012641773   20.216381      19.089914      1.126467      -0.723622       208116.59    
    137000   0.74254055     0.0004664723  -0.0003949299   20.335687      19.277567      1.0581203     -0.58869088     208200.74    
    138000   0.68365995     0.0004664723   0.00043521149  19.673408      18.699193      0.97421543    -0.88745783     206084.1     
    139000   1.0678157      0.0004664723  -0.00049891968  19.711223      18.189586      1.5216374     -1.4224239      207702.52    
    140000   1.0008015      0.0004664723   0.00032812695  19.834231      18.408089      1.4261421     -1.044696       198353.51    
    141000   0.95647015     0.0004664723   0.0016760405   20.272618      18.909648      1.36297       -1.0141722      203552.73    
    142000   1.1261453      0.0004664723  -0.00050336331  20.228437      18.62368       1.6047571     -0.88973914     210399.15    
    143000   1.1743548      0.0004664723   0.0013219526   20.557483      18.884028      1.6734556     -0.67226162     204567.29    
    144000   0.76065284     0.0004664723   0.00028586737  19.976663      18.892733      1.0839303     -0.66426659     197918.88    
    145000   0.9675041      0.0004664723   0.00039526831  20.329916      18.951223      1.3786933     -0.71573672     205286.37    
    146000   1.0283344      0.0004664723   0.0016905991   20.085038      18.619662      1.4653765     -1.0196758      201736.39    
    147000   1.0672946      0.0004664723  -0.00058543357  19.551347      18.030452      1.5208947     -1.3043762      206279.56    
    148000   0.80132957     0.0004664723   0.0011169005   19.809255      18.66736       1.1418946     -1.0193972      205231.05    
    149000   0.99632072     0.0004664723   0.0012854498   19.793763      18.374006      1.419757      -1.2947364      206172.18    
    150000   0.8084384      0.0004664723  -0.0025454312   19.898525      18.746501      1.1520247     -1.1678513      206867.42    
    151000   0.90697391     0.0004664723   0.00037336328  19.784843      18.492405      1.2924378     -1.2515262      204979.86    
    152000   0.95833029     0.0004664723  -0.00019886228  20.159639      18.794018      1.3656207     -1.0637998      206821.13    
    153000   0.77183399     0.0004664723   0.00053247797  19.93815       18.838287      1.0998634     -0.76060923     201633.23    
    154000   1.1927864      0.0004664723   0.00040266012  20.262976      18.563255      1.6997207     -1.1244852      203528.66    
    155000   1.1717807      0.0004664723  -0.00024135883  20.556618      18.88683       1.6697875     -0.69089013     204563.57    
    156000   1.5235468      0.0004664723   0.00048369329  20.63977       18.468716      2.1710542     -0.9723909      201918.75    
    157000   0.96437968     0.0004664723   0.0013587363   20.484952      19.110711      1.374241      -0.91410771     204773.43    
    158000   0.86646535     0.0004664723  -0.00010932679  19.53525       18.300537      1.2347131     -1.2438188      203073.11    
    159000   0.87343836     0.0004664723  -0.0021807682   19.636424      18.391774      1.2446497     -1.5661095      204881       
    160000   0.73675734     0.0004664723  -0.0010379431   19.697949      18.64807       1.0498792     -1.124599       205866.03    
    161000   1.0424143      0.0004664723   0.00080637632  19.97544       18.49          1.4854403     -1.0585282      209406.8     
    162000   1.1795256      0.0004664723   0.00061029624  20.533994      18.85317       1.680824      -0.96239114     210412.87    
    163000   0.93757282     0.0004664723  -5.068145e-05   19.425881      18.08984       1.3360413     -1.5242099      204111.75    
    164000   1.2520295      0.0004664723   0.0026949606   20.010993      18.226851      1.784142      -1.3711099      206728.18    
    165000   0.62742059     0.0004664723  -0.0009434476   19.455794      18.56172       0.89407433    -1.1613121      203079.37    
    166000   1.0182136      0.0004664723   5.9010093e-05  20.234142      18.783188      1.4509544     -1.0888599      205025.29    
    167000   0.77888386     0.0004664723  -1.7878227e-05  18.963341      17.853431      1.1099095     -1.694406       205980.31    
    168000   1.0282827      0.0004664723   0.0002625249   20.750674      19.285372      1.4653029     -0.5967486      206761.17    
    169000   0.95660229     0.0004664723   0.00012297519  19.757091      18.393933      1.3631583     -1.3565665      207932.67    
    170000   0.77818304     0.0004664723   0.0020555546   19.990122      18.881211      1.1089108     -1.1231668      201321.31    
    171000   0.85600307     0.0004664723   0.0013416103   19.595388      18.375584      1.2198044     -1.524352       202804.54    
    172000   0.98740299     0.0004664723  -4.7388139e-05  19.736781      18.329732      1.4070493     -1.1754517      204483.09    
    173000   1.0486695      0.0004664723  -0.00024691266  20.056828      18.562474      1.494354      -1.0871902      203517.85    
    174000   0.96139782     0.0004664723   0.00124234     19.502407      18.132415      1.3699919     -1.3267693      204728.45    
    175000   1.4003997      0.0004664723   0.00037685286  20.476992      18.481423      1.9955695     -1.0669292      206847.69    
    176000   0.69196113     0.0004664723  -0.00031052754  19.87655       18.890505      0.98604461    -0.62084847     207026.18    
    177000   0.83953379     0.0004664723   0.00092465612  20.214661      19.018325      1.1963356     -0.48580789     203693.53    
    178000   0.92958691     0.0004664723   0.00079874555  20.086023      18.761361      1.3246613     -0.97151522     205494.34    
    179000   0.91044851     0.0004664723  -0.0019508962   20.447328      19.149938      1.2973891     -0.81183679     205031.22    
    180000   1.1024661      0.0004664723  -0.0017404245   20.727564      19.156549      1.5710142     -0.71229055     201914.72    
    181000   1.0774986      0.0004664723   9.5287787e-05  20.351654      18.816219      1.5354355     -1.0097186      208035.89    
    182000   0.89288766     0.0004664723   0.00076061452  20.001478      18.729113      1.2723649     -1.0361611      206971.2     
    183000   1.1525268      0.0004664723   0.00090691573  20.818517      19.176167      1.6423507     -0.63797741     205593.75    
    184000   1.0245001      0.0004664723   0.00033533047  20.026054      18.566141      1.4599127     -1.123202       203653.67    
    185000   1.1645451      0.0004664723   0.00093688931  20.428059      18.768583      1.6594767     -1.0113675      208296.79    
    186000   1.2025355      0.0004664723   0.00061056119  20.630478      18.916865      1.7136131     -1.0585805      206779.13    
    187000   0.52662154     0.0004664723   0.00026577835  19.019543      18.269107      0.7504357     -1.2739847      208150.85    
    188000   1.0161967      0.0004664723   0.0012289373   19.889354      18.441274      1.4480802     -1.3370055      206589.5     
    189000   1.2066979      0.0004664723  -0.00012948016  20.123419      18.403875      1.7195445     -1.2279069      205996.43    
    190000   0.77848337     0.0004664723   0.002268569    19.296379      18.18704       1.1093388     -1.7157048      210779.03    
    191000   0.86568708     0.0004664723  -0.0016709529   20.247294      19.01369       1.2336041     -0.93995765     209941.53    
    192000   1.0565875      0.0004664723   0.00080290519  20.399146      18.893509      1.5056372     -0.95983843     220566.41    
    193000   0.77091046     0.0004664723  -0.0010930042   19.997396      18.898849      1.0985474     -0.75664562     211926.55    
    194000   1.1243699      0.0004664723  -0.0012704132   20.21047       18.608243      1.6022272     -1.0500761      216216.08    
    195000   1.1139794      0.0004664723   0.0022511804   20.197688      18.610267      1.5874207     -1.0033302      203146.78    
    196000   0.798216       0.0004664723  -8.2011314e-05  19.622485      18.485028      1.1374578     -0.95020286     201879.95    
    197000   1.4621274      0.0004664723  -0.00065963873  21.139445      19.055913      2.0835316     -0.55616076     203477.64    
    198000   1.040552       0.0004664723   0.00062085498  20.275151      18.792365      1.4827866     -0.57746913     202137.93    
    199000   0.98495172     0.0004664723  -0.0011998576   20.123049      18.719493      1.4035562     -0.89185939     199380.52    
    200000   1.109301       0.0004664723   0.0002694838   20.522962      18.942209      1.5807539     -0.68238748     203553.97    
    201000   0.75643324     0.0004664723  -0.0013261798   19.951971      18.874054      1.0779174     -0.88632672     206235.66    
    202000   0.88708447     0.0004664723   0.00052243138  19.990804      18.726708      1.2640954     -0.79544042     210462.51    
    203000   0.83637628     0.0004664723  -0.00015431593  19.965167      18.77333       1.1918362     -0.88091649     212443.04    
    204000   1.3490192      0.0004664723  -0.00051020102  20.46259       18.540238      1.9223523     -1.0693119      211966.93    
    205000   1.2663417      0.0004664723   0.0019245742   20.52297       18.718433      1.804537      -0.89477899     209045.87    
    206000   0.91559152     0.0004664723   0.0011288387   19.50276       18.198042      1.3047179     -1.3986417      205566.24    
    207000   0.78079429     0.0004664723  -0.0015651075   20.196679      19.084048      1.1126319     -0.61528497     203395.9     
    208000   1.1375848      0.0004664723   0.0013327033   20.425518      18.80446       1.6210583     -1.0371609      203791.71    
    209000   1.0993725      0.0004664723   0.00042943607  20.604944      19.038339      1.5666058     -0.69818839     206410.53    
    210000   1.50931        0.0004664723   0.0016879001   20.936474      18.785708      2.1507668     -1.0720091      200958.57    
    211000   1.1321977      0.0004664723  -0.0007992819   20.288554      18.675172      1.6133817     -0.81381796     205803.62    
    212000   0.96972519     0.0004664723   7.4976772e-06  19.967445      18.585586      1.3818584     -0.9649528      206532.2     
    213000   1.0906761      0.0004664723  -0.00081220828  20.125343      18.571129      1.5542135     -0.92049896     212459.25    
    214000   0.88363999     0.0004664723  -0.00056523917  20.249528      18.990341      1.259187      -0.90168327     208312.85    
    215000   1.3342763      0.0004664723   0.0020276313   20.66197       18.760626      1.9013437     -0.79355792     211956.64    
    216000   0.9942368      0.0004664723  -0.0015623619   20.311644      18.894857      1.4167874     -1.2224233      214837.22    
    217000   1.2196541      0.0004664723  -0.00092452475  20.818837      19.08083       1.738007      -0.62601704     206689.21    
    218000   0.87277253     0.0004664723  -0.002566291    19.956962      18.713262      1.2437009     -1.1527802      203123.59    
    219000   0.83215112     0.0004664723  -6.5382191e-05  20.175082      18.989266      1.1858153     -0.60860948     204080.84    
    220000   0.98850763     0.0004664723  -0.000655927    20.217903      18.80928       1.4086234     -0.74009612     207860.84    
    221000   1.0053903      0.0004664723  -0.00066773893  20.344914      18.912232      1.4326811     -0.83467903     205623.43    
    222000   1.216421       0.0004664723   0.00050207246  20.193459      18.460059      1.7334        -1.2634195      207017.61    
    223000   0.92256089     0.0004664723   0.0012079798   19.68946       18.374811      1.3146493     -1.1501293      212739.52    
    224000   0.81380599     0.0004664723  -0.0021226875   20.323928      19.164254      1.1596735     -0.72332466     209132.57    
    225000   1.4787781      0.0004664723  -0.00038461837  20.871283      18.764024      2.1072588     -0.96817297     208390.29    
    226000   1.3618444      0.0004664723  -0.0005036607   20.408221      18.467593      1.9406283     -1.2824066      206500.6     
    227000   1.3056542      0.0004664723  -0.00036202486  20.128421      18.267864      1.8605573     -1.2336079      206651.19    
    228000   0.83222193     0.0004664723   0.00069676114  20.076306      18.89039       1.1859163     -0.74143939     208717.98    
    229000   1.1568084      0.0004664723  -3.818182e-05   20.510767      18.862315      1.6484519     -1.0483188      210669.08    
    230000   0.91437286     0.0004664723   0.0019397106   20.268059      18.965077      1.3029813     -0.86120115     208548.79    
    231000   0.77340762     0.0004664723  -0.00074521406  20.072582      18.970476      1.1021059     -1.0002568      208932.93    
    232000   0.93954019     0.0004664723  -0.00022080114  19.577218      18.238373      1.3388448     -1.3546296      203725.57    
    233000   0.92788203     0.0004664723   0.00068911208  20.237793      18.915561      1.3222319     -0.72135036     203805.41    
    234000   1.409506       0.0004664723   0.002779304    20.482233      18.473687      2.0085461     -1.1117325      205171.22    
    235000   0.86369586     0.0004664723  -0.0011793801   20.537188      19.306421      1.2307666     -0.77918774     206725.14    
    236000   0.9954859      0.0004664723   0.0013747505   20.235231      18.816664      1.4185674     -0.8511474      207788.58    
    237000   1.2114971      0.0004664723   0.00090535211  20.204055      18.477672      1.7263834     -1.1813101      204838.11    
    238000   0.82712845     0.0004664723   0.00030447295  20.276977      19.098319      1.178658      -0.92067741     206986.67    
    239000   0.92376587     0.0004664723  -0.0027717465   20.312092      18.995725      1.3163664     -0.98811761     208809.68    
    240000   0.99721703     0.0004664723  -0.00056528576  19.673225      18.252191      1.4210343     -1.4288916      201536.35    
    241000   0.77941853     0.0004664723  -0.0016587272   20.332456      19.221784      1.1106714     -0.7722954      208388.56    
    242000   1.1583697      0.0004664723   0.00050129933  20.740409      19.089732      1.6506768     -0.81643922     211429.99    
    243000   1.023418       0.0004664723  -0.00071385043  20.130109      18.671738      1.4583707     -1.1213463      203563.09    
    244000   1.2465118      0.0004664723   0.00083531007  20.92986       19.153581      1.7762793     -0.7364848      206680.66    
    245000   0.98879148     0.0004664723  -0.0010095421   20.527326      19.118299      1.4090279     -0.69934912     207075.09    
    246000   1.3932871      0.0004664723   0.0009285784   20.733266      18.747832      1.9854341     -0.85447101     204246.28    
    247000   1.1349433      0.0004664723  -0.00081608476  20.138198      18.520904      1.6172942     -1.1673805      204784.29    
    248000   1.3171941      0.0004664723   0.0012227382   20.602055      18.725053      1.8770016     -1.0064808      206628.43    
    249000   0.94477342     0.0004664723   0.00019292686  20.303424      18.957122      1.3463021     -0.89207021     206818.56    
    250000   0.84609064     0.0004664723  -2.5782312e-05  19.955088      18.749408      1.2056792     -1.0538575      203966.2     
    251000   0.98021715     0.0004664723   0.00017915005  20.103143      18.706333      1.3968094     -0.90309827     206114.3     
    252000   1.2939247      0.0004664723  -0.00032049227  20.44857       18.604728      1.8438427     -1.1580162      203948.28    
    253000   1.0287467      0.0004664723  -0.001763257    20.180575      18.714611      1.4659641     -0.94373615     209327.73    
    254000   0.94715251     0.0004664723  -0.00041355787  19.806574      18.456881      1.3496923     -1.3716918      210925.56    
    255000   1.1292903      0.0004664723  -0.00022648277  20.254477      18.645239      1.6092386     -0.98040752     208262.48    
    256000   1.2381616      0.0004664723  -0.00020818818  20.672025      18.907645      1.7643803     -0.71387891     207885.51    
    257000   0.65756099     0.0004664723  -0.0013367699   19.515097      18.578073      0.9370244     -1.1644252      214113.14    
    258000   0.83260179     0.0004664723  -0.0020304817   19.708319      18.521861      1.1864575     -1.2227224      207065.66    
    259000   1.34309        0.0004664723  -2.9314612e-05  20.684889      18.770986      1.9139033     -1.1351633      208983.31    
    260000   0.8658345      0.0004664723  -0.00071632443  20.103526      18.869712      1.2338142     -1.0506842      205715.39    
    261000   0.55678249     0.0004664723   0.0013753694   19.412306      18.618891      0.79341505    -1.2230941      205133.17    
    262000   0.8205894      0.0004664723  -0.00063553275  20.099916      18.930576      1.1693399     -0.99818433     199630.17    
    263000   0.93206413     0.0004664723   0.00097601695  19.813314      18.485123      1.3281914     -0.9639426      208911.1     
    264000   0.65652209     0.0004664723   1.2500637e-06  19.409359      18.473815      0.93554397    -1.1201127      203492.96    
    265000   1.115772       0.0004664723  -0.000411018    19.986786      18.396811      1.5899751     -1.1278967      215376.83    
    266000   0.77632191     0.0004664723  -0.00061063683  20.068865      18.962606      1.1062587     -0.66590142     225605.81    
    267000   1.1302424      0.0004664723  -2.5748206e-05  20.122218      18.511623      1.6105954     -0.97355223     222238.12    
    268000   0.99932071     0.0004664723   0.00085023923  20.011278      18.587246      1.424032      -0.79964473     220389.71    
    269000   1.3067988      0.0004664723  -0.00026479372  21.074737      19.212548      1.8621882     -1.0005715      213801.76    
    270000   1.0504289      0.0004664723   0.0018310092   20.196904      18.700043      1.4968611     -1.0871716      218465.97    
    271000   1.0039541      0.0004664723   0.00099007061  19.991935      18.5613        1.4306346     -1.0531107      218617.61    
    272000   1.1015208      0.0004664723   0.00021266656  20.203591      18.633924      1.5696672     -0.87498904     211305.57    
    273000   0.80305867     0.0004664723   0.00063796092  19.879128      18.73477       1.1443586     -1.0068521      212230.64    
    274000   1.2294135      0.0004664723  -0.00029049608  20.302731      18.550816      1.7519142     -0.91913132     211934.59    
    275000   1.2403853      0.0004664723   0.00034519664  20.425402      18.657853      1.767549      -0.91601109     212372.44    
    276000   0.92960706     0.0004664723   0.00020665753  20.03304       18.708349      1.3246901     -0.92418688     211797.82    
    277000   1.1457158      0.0004664723   0.00076018312  19.970832      18.338187      1.632645      -1.2303973      211884.2     
    278000   1.1524036      0.0004664723  -0.001458887    19.986764      18.344589      1.6421752     -1.3748958      210166.07    
    279000   0.81893001     0.0004664723  -0.0016320884   19.988698      18.821723      1.1669753     -0.76825439     213998.91    
    280000   0.85412542     0.0004664723   0.00022291725  19.897929      18.6808        1.2171287     -0.91111121     202933.61    
    281000   1.0677481      0.0004664723   0.001256653    20.638477      19.116936      1.521541      -0.66017691     217477.26    
    282000   0.91947732     0.0004664723  -0.0019208744   20.414524      19.104269      1.3102552     -0.68907571     219082.14    
    283000   0.96643652     0.0004664723  -0.00070467544  19.836367      18.459195      1.377172      -1.2338757      208679.18    
    284000   1.0788834      0.0004664723  -0.00019714825  19.729642      18.192233      1.5374088     -1.25906        207450.85    
    285000   0.82119151     0.0004664723  -0.001770193    19.943515      18.773317      1.1701979     -0.80519159     212298.76    
    286000   0.87422412     0.0004664723   0.00082799869  20.19025       18.94448       1.2457694     -0.90051777     218422.97    
    287000   0.6196833      0.0004664723  -0.000339684    19.632221      18.749173      0.8830487     -0.80465946     206917.59    
    288000   0.79139277     0.0004664723   0.001406198    20.227694      19.09996       1.1277347     -0.43289024     203192.64    
    289000   1.2145943      0.0004664723   0.00066308189  20.213428      18.482631      1.7307969     -0.98455042     206411.34    
    290000   1.0700448      0.0004664723   0.0011748613   19.953575      18.428761      1.5248138     -1.1822065      210423.5     
    291000   1.1105886      0.0004664723  -0.0013489996   20.518083      18.935494      1.5825888     -1.1541695      207559.14    
    292000   0.87303575     0.0004664723   0.00078447263  20.31366       19.069584      1.2440759     -0.88974796     206935.61    
    293000   0.5798469      0.0004664723  -0.00045183303  19.787631      18.961349      0.82628183    -0.91550661     207960.43    
    294000   0.7947224      0.0004664723   0.00058167075  20.186691      19.054212      1.1324794     -0.45262994     208635.12    
    295000   0.79859319     0.0004664723  -0.0015210043   19.909675      18.77168       1.1379953     -0.82723931     214756.75    
    296000   0.83508306     0.0004664723  -0.00075377297  19.954944      18.764951      1.1899934     -0.98859879     212744.95    
    297000   1.1062411      0.0004664723   0.0008946005   20.471299      18.894905      1.5763936     -0.88644082     214918.67    
    298000   1.0373068      0.0004664723  -0.00030176934  19.841665      18.363503      1.4781622     -1.2447476      211259.01    
    299000   0.75708211     0.0004664723   0.00035937999  19.362169      18.283327      1.078842      -1.3520934      210761.61    
    300000   1.0897468      0.0004664723   0.0014208565   19.983731      18.430841      1.5528892     -1.2304667      210475.4     
    301000   1.0577761      0.0004664723   0.00065830528  20.060955      18.553624      1.507331      -1.2134206      208248.65    
    302000   0.82725953     0.0004664723  -0.00046824567  19.775412      18.596567      1.1788448     -0.94356509     212698.26    
    303000   0.87533586     0.0004664723   0.00043733174  19.886141      18.638788      1.2473536     -1.2074944      211530.75    
    304000   0.62876145     0.0004664723  -0.0024038462   19.611633      18.715648      0.89598507    -1.0649172      216474.53    
    305000   1.0478659      0.0004664723  -0.00087213109  19.552342      18.059133      1.4932089     -1.5066441      210612.64    
    306000   0.7330515      0.0004664723   0.00069375233  19.31773       18.273132      1.0445984     -1.2073704      216528.02    
    307000   0.79226578     0.0004664723   0.00058057927  19.633888      18.504909      1.1289787     -1.1970235      218795.93    
    308000   0.95846863     0.0004664723  -0.00086303336  20.328403      18.962585      1.3658178     -0.93866211     212892.88    
    309000   1.2629365      0.0004664723  -0.00064884308  20.595656      18.795971      1.7996845     -1.024588       217685.08    
    310000   0.92995011     0.0004664723  -0.0019045076   19.972589      18.64741       1.3251789     -1.1212055      208370.71    
    311000   0.72141751     0.0004664723  -0.00068879617  19.065218      18.037198      1.02802       -1.5475522      224716.93    
    312000   0.99365933     0.0004664723   6.2276947e-05  20.048442      18.632478      1.4159645     -1.1718432      212531.58    
    313000   0.71932223     0.0004664723  -0.00083050724  20.060392      19.035358      1.0250342     -0.82456423     204171.88    
    314000   0.80371475     0.0004664723   0.00077972526  20.139708      18.994414      1.1452935     -0.87641433     203005.46    
    315000   0.98201942     0.0004664723  -0.0013798017   20.015604      18.616226      1.3993777     -0.85301297     207724.14    
    316000   0.73039349     0.0004664723   0.00067043066  19.412502      18.371692      1.0408107     -1.1168701      216693.93    
    317000   1.2819566      0.0004664723   0.00037448489  20.684797      18.858009      1.8267881     -1.0289242      214974.15    
    318000   0.85660504     0.0004664723  -4.5041807e-05  19.742159      18.521497      1.2206622     -1.0308558      205196.06    
    319000   1.3393784      0.0004664723   0.00053985717  20.856998      18.948384      1.9086142     -0.67527521     202333.43    
    320000   0.85850595     0.0004664723  -0.00033584093  19.754659      18.531288      1.223371      -1.2646843      206109.63    
    321000   1.078873       0.0004664723   0.0031497563   20.244025      18.706631      1.537394      -1.0914087      204683.49    
    322000   0.97961228     0.0004664723   0.00042202163  19.979615      18.583668      1.3959475     -1.2102367      205916.6     
    323000   0.85572947     0.0004664723   0.00038647143  19.990356      18.770942      1.2194145     -0.99672851     216797       
    324000   0.63318904     0.0004664723   2.7980013e-05  19.591955      18.689661      0.90229438    -0.9819226      216786.28    
    325000   0.92573295     0.0004664723   0.00029036767  19.999203      18.680034      1.3191695     -1.0812618      222479.9     
    326000   0.90617496     0.0004664723  -0.00032657387  20.110704      18.819405      1.2912993     -0.68367435     213082.45    
    327000   1.2190257      0.0004664723  -0.00085261828  20.485456      18.748345      1.7371116     -0.9445344      214239.56    
    328000   1.1711266      0.0004664723   0.00084464574  20.682771      19.013915      1.6688553     -0.96324882     228358.99    
    329000   1.0620034      0.0004664723   0.0014121159   20.181246      18.667891      1.5133548     -1.1289164      224169.81    
    330000   1.0716611      0.0004664723   0.0025652683   20.179255      18.652138      1.5271171     -1.1540172      214136.11    
    331000   1.2390347      0.0004664723  -0.00040179934  20.938897      19.173272      1.7656244     -0.63432695     221677       
    332000   1.0357031      0.0004664723   0.00095284624  20.107946      18.632069      1.475877      -1.0181802      225203.16    
    333000   0.86625165     0.0004664723   0.0004912873   20.188627      18.954219      1.2344086     -0.91501564     209470.1     
    334000   0.7452711      0.0004664723   0.001151736    19.413112      18.351101      1.0620113     -1.3973399      215990.14    
    335000   1.0888718      0.0004664723  -0.00066189806  19.638521      18.086879      1.5516423     -1.4155484      221304.89    
    336000   1.0038123      0.0004664723   0.0010280507   20.029434      18.599002      1.4304325     -1.0043477      211239.82    
    337000   0.9231111      0.0004664723  -0.00078478007  19.806814      18.49138       1.3154333     -1.2018537      224937.72    
    338000   0.8040423      0.0004664723  -0.00021642396  20.051339      18.905579      1.1457603     -0.95671504     223461.19    
    339000   1.046787       0.0004664723  -0.00078379293  20.801215      19.309543      1.4916715     -0.59197591     224295.71    
    340000   1.1303071      0.0004664723  -0.00037182522  20.016735      18.406047      1.6106877     -1.1548537      207087.19    
    341000   1.052063       0.0004664723   0.0012892991   20.415754      18.916564      1.4991898     -0.81027283     222794.76    
    342000   0.83006906     0.0004664723  -0.0013781992   19.797173      18.614324      1.1828484     -0.91649973     218535.29    
    343000   0.8452102      0.0004664723  -0.00070680319  19.95149       18.747066      1.2044245     -0.99386603     208146.13    
    344000   1.2936541      0.0004664723   0.00093268538  21.190532      19.347075      1.8434571     -0.75760544     211768.21    
    345000   1.0291057      0.0004664723  -0.0009347297   20.021516      18.55504       1.4664757     -1.06512        202810.71    
    346000   0.99352371     0.0004664723  -9.5873151e-05  19.745086      18.329315      1.4157713     -1.2808729      212644.8     
    347000   0.77278216     0.0004664723  -0.00041233861  19.549566      18.448352      1.1012146     -1.3212492      223088.55    
    348000   0.68499553     0.0004664723   0.00081766807  19.733948      18.757829      0.97611863    -0.8605         216657.31    
    349000   0.94487499     0.0004664723   0.00081755151  20.505895      19.159448      1.3464469     -0.49463337     224525.3     
    350000   1.0814477      0.0004664723   0.00011910994  19.960677      18.419614      1.5410629     -1.0990953      222969.52    
    351000   1.3588555      0.0004664723   0.0011761702   20.542576      18.606207      1.936369      -1.0324222      216768.8     
    352000   1.0451273      0.0004664723   0.00091992276  20.846148      19.356842      1.4893064     -0.80761235     205573.89    
    353000   0.76478187     0.0004664723  -6.7531055e-06  20.114607      19.024792      1.0898142     -0.80173983     206876.83    
    354000   1.243984       0.0004664723   6.3406743e-05  19.971525      18.198848      1.7726772     -1.3636535      212613.1     
    355000   1.160641       0.0004664723   0.0012808846   20.457389      18.803476      1.6539134     -0.97053126     216831.93    
    356000   0.85312532     0.0004664723  -0.0011037137   19.505704      18.290001      1.2157036     -1.2534751      226641.07    
    357000   1.2798735      0.0004664723   0.00019112651  20.916138      19.092319      1.8238198     -0.50651792     214026.89    
    358000   1.3219265      0.0004664723  -0.00038290023  21.142035      19.25829       1.8837453     -0.61660753     221478.25    
    359000   0.98798062     0.0004664723  -0.0002599967   20.198247      18.790374      1.4078724     -0.83338581     213970.43    
    360000   0.78518716     0.0004664723   0.00067295192  19.735292      18.6164        1.1188917     -1.1745019      208359.42    
    361000   0.82572675     0.0004664723   0.0001118936   20.25002       19.073359      1.1766606     -0.75475186     212030.93    
    362000   0.98889163     0.0004664723   0.0027551347   20.450759      19.041589      1.4091706     -0.65106856     216180.55    
    363000   0.78388717     0.0004664723  -0.0011018891   19.71749       18.60045       1.1170392     -1.0606489      215752.48    
    364000   0.85751511     0.0004664723  -0.0012294659   19.709208      18.487249      1.221959      -1.0565676      219829.55    
    365000   0.96026831     0.0004664723   0.00033041162  19.968203      18.599821      1.3683823     -1.0782107      217831.32    
    366000   1.1873157      0.0004664723   0.00056123115  19.920273      18.228348      1.6919249     -1.3675528      220760.64    
    367000   0.7732146      0.0004664723   0.0011784832   19.541651      18.43982       1.1018308     -1.3362716      218750.79    
    368000   1.0289074      0.0004664723  -0.00038419535  20.321569      18.855376      1.466193      -0.92094231     208281.22    
    369000   0.94033886     0.0004664723  -0.0004790839   20.015014      18.675031      1.3399829     -0.93179586     205333.67    
    370000   1.0290361      0.0004664723   0.00021153191  20.136701      18.670325      1.4663765     -0.94598947     203376.87    
    371000   0.84842288     0.0004664723  -0.0021475687   19.238933      18.029931      1.2090026     -1.6472557      204925.97    
    372000   1.1692964      0.0004664723  -0.00051696679  20.094084      18.427837      1.6662473     -1.2564185      201738.38    
    373000   1.4805658      0.0004664723   0.0014698097   21.046434      18.936627      2.1098063     -1.0246333      200486.66    
    374000   0.75313961     0.0004664723  -1.2224311e-05  19.645113      18.571889      1.0732239     -1.1078615      205004.32    
    375000   1.2343629      0.0004664723  -0.00012925627  20.517497      18.75853       1.7589672     -1.0001657      205145.46    
    376000   1.140929       0.0004664723   0.00030409248  20.49855       18.872727      1.6258239     -0.82862081     208742.86    
    377000   1.0679225      0.0004664723   0.00022145436  19.915502      18.393713      1.5217895     -1.0642278      210054.16    
    378000   0.85089448     0.0004664723  -0.00077085408  19.795801      18.583277      1.2125246     -1.0760501      210624.18    
    379000   0.7207261      0.0004664723  -0.00032411241  19.410122      18.383088      1.0270347     -1.144531       206129.21    
    380000   0.8592748      0.0004664723   0.0013730802   20.005127      18.780661      1.2244666     -0.90013566     204341.56    
    381000   1.0929668      0.0004664723   0.00054814431  19.812046      18.254568      1.5574777     -1.253927       207320.36    
    382000   0.83972323     0.0004664723   0.00029986242  19.81388       18.617274      1.1966056     -1.1833729      213499.44    
    383000   0.99629154     0.0004664723   0.00047015502  20.373466      18.953751      1.4197154     -0.90069414     207704.25    
    384000   1.496546       0.0004664723   7.0372379e-06  20.486266      18.353688      2.1325781     -1.1224952      209947.26    
    385000   0.62246545     0.0004664723  -0.00041275821  19.257975      18.370962      0.88701327    -1.2967577      211581.46    
    386000   0.92275691     0.0004664723   0.0023636026   20.049118      18.734189      1.3149286     -1.12989        204563.99    
    387000   1.1193702      0.0004664723  -0.0003403429   20.352203      18.757101      1.5951025     -0.91960214     204915.89    
    388000   1.2527146      0.0004664723  -0.00030699495  20.831926      19.046807      1.7851182     -0.76426706     207269.91    
    389000   1.1789299      0.0004664723   0.0014847164   20.198227      18.518252      1.6799752     -0.99627701     210269.3     
    390000   0.96292648     0.0004664723  -0.00091634673  20.522987      19.150817      1.3721702     -0.52756045     203724.7     
    391000   0.73531458     0.0004664723  -0.0011902089   19.855038      18.807215      1.0478233     -1.1155925      210978.16    
    392000   0.97675584     0.0004664723  -0.0011593802   19.9921        18.600223      1.3918771     -1.285786       206463.46    
    393000   0.91546597     0.0004664723  -0.0017878175   19.845443      18.540904      1.304539      -1.2307124      203979.56    
    394000   0.68338843     0.0004664723  -0.0016192202   20.04016       19.066332      0.97382851    -0.8573747      206691.77    
    395000   1.0156548      0.0004664723  -0.00036406766  20.448532      19.001224      1.4473082     -0.8216394      213458.79    
    396000   1.0265707      0.0004664723   0.0020040816   20.426571      18.963708      1.4628633     -0.92048655     205241.62    
    397000   0.73690067     0.0004664723   0.00019736377  19.924         18.873916      1.0500835     -0.82269418     207867.36    
    398000   1.1394416      0.0004664723  -0.0013018048   19.8504        18.226696      1.6237042     -1.2654958      205866.83    
    399000   1.100556       0.0004664723  -6.82998e-06    20.786083      19.217791      1.5682923     -0.53988421     209646.07    
    400000   1.1467741      0.0004664723  -0.00037167715  20.563343      18.92919       1.6341531     -0.58086489     205371.66    
    401000   0.78062207     0.0004664723  -0.00013150363  19.675322      18.562935      1.1123864     -1.1608005      207395.69    
    402000   1.0414432      0.0004664723  -0.00012720509  20.257123      18.773067      1.4840566     -0.90204889     201712.74    
    403000   1.328701       0.0004664723  -0.0021779233   21.12447       19.231071      1.893399      -0.76841076     213498.58    
    404000   1.1657818      0.0004664723  -0.00060613391  20.34092       18.679681      1.661239      -1.13541        212149.46    
    405000   0.71267385     0.0004664723  -0.00046254423  19.653949      18.638388      1.0155602     -1.203452       205993.89    
    406000   1.0179268      0.0004664723   0.00040095242  19.872529      18.421983      1.4505457     -1.0982643      207987.73    
    407000   1.3261117      0.0004664723  -0.0023492782   20.923906      19.034196      1.8897092     -0.85256606     208302.91    
    408000   1.075422       0.0004664723  -0.00014288641  20.698314      19.165838      1.5324763     -0.43135933     205516.26    
    409000   1.3795627      0.0004664723  -0.00067057571  20.429243      18.463366      1.9658768     -1.3646903      207254.44    
    410000   1.2085774      0.0004664723  -0.00023356244  20.751582      19.029359      1.7222228     -1.012899       205183.85    
    411000   0.90845966     0.0004664723  -0.0007194933   20.034768      18.740213      1.294555      -1.1151186      204878.9     
[...]
    861000   1.0515287      0.0004664723   0.0012675087   20.059084      18.560656      1.4984284     -0.98285533     225257.59    
    862000   0.94078668     0.0004664723  -0.00099383633  20.159483      18.818862      1.340621      -0.94352821     225298.14    
    863000   0.7312319      0.0004664723  -0.00039633108  19.848257      18.806252      1.0420055     -0.75904175     226287.55    
    864000   1.1755989      0.0004664723   0.0011773457   20.087289      18.412061      1.6752284     -1.217159       212899.31    
    865000   1.1378426      0.0004664723  -0.00097661949  20.222703      18.601278      1.6214256     -1.1076881      221512.64    
    866000   0.87664743     0.0004664723   0.001435284    20.456713      19.20749       1.2492226     -0.78987438     224103.4     
    867000   0.76590933     0.0004664723   0.00017234654  19.583674      18.492253      1.0914208     -1.1675798      224109.42    
    868000   0.85189382     0.0004664723   0.0010529478   20.143849      18.929901      1.2139487     -0.97256781     226002.69    
    869000   1.2957315      0.0004664723   0.00044242874  20.656547      18.81013       1.8464174     -0.76769881     225629.78    
    870000   1.2384972      0.0004664723  -0.00024747835  20.39606       18.631202      1.7648585     -0.91574116     222111.56    
    871000   1.0131705      0.0004664723  -0.00084893345  20.263307      18.819539      1.443768      -0.89008528     220754.3     
    872000   1.1270217      0.0004664723   0.00033748598  20.393256      18.78725       1.606006      -0.8997523      220811.92    
    873000   0.83082519     0.0004664723   0.00038034462  20.357604      19.173678      1.1839259     -0.80599499     219789.83    
    874000   0.82281602     0.0004664723  -0.00037832266  19.478959      18.306446      1.1725128     -1.4441671      222079.94    
    875000   0.89868919     0.0004664723   0.0014772202   20.163705      18.883073      1.2806321     -0.91623981     223793.85    
    876000   0.94715828     0.0004664723  -0.00065987536  20.224997      18.875296      1.3497005     -0.64297467     220730.38    
    877000   1.1777183      0.0004664723  -0.0010939942   21.163054      19.484805      1.6782486     -0.73544455     213729.42    
    878000   1.3179791      0.0004664723   0.00024501586  20.408608      18.530488      1.8781202     -1.0085183      225462.62    
    879000   0.72471542     0.0004664723   9.3666505e-06  20.083104      19.050385      1.0327195     -0.66467873     222591.53    
    880000   0.77329276     0.0004664723   1.6595423e-05  19.752461      18.650519      1.1019422     -1.114037       220708.41    
    881000   0.85879718     0.0004664723  -0.0010567952   19.656681      18.432895      1.223786      -1.2384689      222867.9     
    882000   1.4819294      0.0004664723   0.00021500014  20.366992      18.255243      2.1117493     -1.3785119      221383.47    
    883000   0.86949878     0.0004664723  -0.00060246971  19.811285      18.57225       1.2390358     -1.0425404      226308.14    
    884000   1.1673869      0.0004664723  -0.00053117579  20.392938      18.729412      1.6635263     -1.1473508      220857.28    
    885000   0.94651487     0.0004664723  -0.00025466521  20.878102      19.529318      1.3487837     -0.79431902     209427.5     
    886000   0.74086434     0.0004664723   0.00055778893  19.667403      18.611671      1.0557317     -1.2669428      215947.6     
    887000   0.99485253     0.0004664723  -0.00067906619  20.157277      18.739612      1.4176649     -1.1382879      220260.34    
    888000   1.0033287      0.0004664723  -0.00070172279  19.783648      18.353904      1.4297433     -1.3855604      210296.67    
    889000   1.0928182      0.0004664723   0.00062911033  20.008123      18.450858      1.5572659     -1.1217333      209351.92    
    890000   0.81176237     0.0004664723  -0.00024188493  20.3641        19.207339      1.1567614     -1.0437377      208031.56    
    891000   1.0579787      0.0004664723   0.00031756489  19.821109      18.313489      1.5076196     -1.3194651      204125.12    
    892000   1.3253995      0.0004664723  -0.00015396839  21.030295      19.141601      1.8886943     -0.81687701     217877.46    
    893000   1.0386381      0.0004664723  -0.0001947055   20.434142      18.954083      1.4800594     -1.025959       215964.86    
    894000   1.0189678      0.0004664723   0.0011784345   19.715171      18.263141      1.4520292     -1.3858225      211319.86    
    895000   1.3925135      0.0004664723   0.0013813773   20.57784       18.593509      1.9843317     -0.92774131     199357.07    
    896000   0.75305307     0.0004664723   0.0014955628   19.76086       18.687759      1.0731006     -0.92059738     203313.89    
    897000   1.2288606      0.0004664723   0.0014801246   20.006873      18.255747      1.7511263     -1.2345506      203487.57    
    898000   0.79741369     0.0004664723  -0.00031290551  19.28424       18.147926      1.1363145     -1.2550416      206762.84    
    899000   0.80047469     0.0004664723   0.0012769862   19.518561      18.377885      1.1406764     -1.1755528      207048.94    
    900000   1.17665        0.0004664723   0.00024936053  20.123813      18.447087      1.6767262     -1.0774065      202314.56    
    901000   0.65128658     0.0004664723   0.00066773584  19.856113      18.92803       0.92808337    -0.93826692     205227.68    
    902000   0.923698       0.0004664723   0.0007612863   20.399904      19.083634      1.3162696     -0.80592348     208585.85    
    903000   1.0573526      0.0004664723  -0.0004797692   20.049948      18.54322       1.5067275     -1.1847073      206586.94    
    904000   1.1977331      0.0004664723  -0.00027210795  20.53726       18.830491      1.7067696     -0.83708219     207163.25    
    905000   1.2625392      0.0004664723  -3.444348e-05   20.537133      18.738015      1.7991184     -1.024745       202627.92    
    906000   1.2325089      0.0004664723  -0.00064789681  20.750832      18.994506      1.7563251     -0.82083129     204167.67    
    907000   1.0475155      0.0004664723  -0.00043690522  19.978154      18.485445      1.4927096     -1.0987818      205250.93    
    908000   0.97525495     0.0004664723  -7.8342366e-05  20.551123      19.161385      1.3897383     -0.67408472     206452.38    
    909000   0.95167573     0.0004664723  -0.00013486023  20.118049      18.761911      1.3561379     -0.79925244     202598.28    
    910000   0.76991391     0.0004664723  -0.00020302738  19.78039       18.683263      1.0971273     -1.2437429      201081.58    
    911000   1.1379727      0.0004664723   0.0010482607   20.649219      19.027608      1.6216111     -0.80014674     206210.95    
    912000   1.0235325      0.0004664723  -0.00066558549  20.260331      18.801797      1.4585339     -0.82342457     204508.22    
    913000   0.98184373     0.0004664723  -0.00039894472  20.309924      18.910796      1.3991273     -0.71694799     196677.6     
    914000   1.1396065      0.0004664723  -0.0022887894   20.618011      18.994072      1.6239393     -0.74489351     202964.54    
    915000   1.0494617      0.0004664723  -0.00047160869  20.866187      19.370704      1.495483      -0.70925796     200619.23    
    916000   0.9830165      0.0004664723   0.0010562101   20.627047      19.226248      1.4007985     -0.70789612     203500.82    
    917000   1.1813575      0.0004664723  -0.00079237324  20.494457      18.811023      1.6834344     -0.86317157     207556.12    
    918000   0.88678612     0.0004664723   0.001562882    20.442801      19.179131      1.2636702     -0.45342627     207945.69    
    919000   0.88029526     0.0004664723  -0.00079733833  20.287362      19.032941      1.2544207     -0.68081548     208475.66    
    920000   1.193052       0.0004664723   0.00031899047  20.508099      18.808         1.7000991     -0.83548798     204855.78    
    921000   0.88099176     0.0004664723   0.00023161174  20.318446      19.063032      1.2554133     -0.50230197     210476.29    
    922000   1.3870629      0.0004664723   0.0011319609   20.579207      18.602642      1.9765646     -0.89607643     208422.04    
    923000   1.1830092      0.0004664723  -0.0015390248   20.490504      18.804716      1.6857881     -1.1378177      207030.51    
    924000   1.0269031      0.0004664723  -0.0016199147   20.848525      19.385188      1.4633369     -0.59969775     203614.15    
    925000   0.79379738     0.0004664723   0.0012454674   19.836563      18.705402      1.1311613     -0.92971613     203874.14    
    926000   1.1441676      0.0004664723   0.0014290538   20.417487      18.787048      1.6304389     -1.0010156      204960.54    
    927000   1.5101729      0.0004664723  -0.00081304665  21.052862      18.900866      2.1519964     -0.78532209     208368.97    
    928000   1.0759252      0.0004664723   0.00080676643  20.445366      18.912172      1.5331933     -0.70350196     201864.87    
    929000   1.0214455      0.0004664723   0.0013529621   20.006835      18.551275      1.4555599     -1.0567608      198515.23    
    930000   0.61919772     0.0004664723   0.0006526283   19.959959      19.077602      0.88235675    -0.84566341     197394.04    
    931000   1.290419       0.0004664723  -0.00065261355  21.301751      19.462904      1.838847      -0.54368309     200633.76    
    932000   1.0899004      0.0004664723  -0.00014228371  20.756386      19.203278      1.5531081     -0.66163751     201841.15    
    933000   0.91261794     0.0004664723  -0.00087546147  19.930441      18.629961      1.3004806     -1.2111233      205466.81    
    934000   0.90957267     0.0004664723   0.0012703798   19.63105       18.334909      1.2961411     -1.1331789      205457.95    
    935000   0.80442113     0.0004664723   0.0010325442   19.843313      18.697013      1.1463001     -1.031812       206865.66    
    936000   1.2435857      0.0004664723   2.2261422e-05  20.427671      18.655562      1.7721096     -1.0285225      206811.67    
    937000   1.228206       0.0004664723   9.5172965e-05  20.875595      19.125402      1.7501936     -0.61213169     206522.9     
    938000   1.1389183      0.0004664723  -0.00011737662  20.619683      18.996724      1.6229586     -0.82477103     209287.38    
    939000   1.1389515      0.0004664723   0.0013876705   20.725464      19.102458      1.6230059     -0.85022321     205916.14    
    940000   0.87715477     0.0004664723   0.0009377989   19.605612      18.355666      1.2499455     -1.0787942      203202.97    
    941000   0.78191033     0.0004664723   0.0014261058   19.643176      18.528954      1.1142222     -1.115628       207699.5     
    942000   0.98555326     0.0004664723   0.00029786565  20.15483       18.750416      1.4044134     -1.1918034      204603.83    
    943000   0.9874715      0.0004664723   5.6334539e-05  20.246657      18.83951       1.4071469     -0.89639868     205306.18    
    944000   0.86452179     0.0004664723  -0.0013498575   20.263203      19.031259      1.2319435     -0.69233307     207146.47    
    945000   0.6039219      0.0004664723  -0.0021450206   20.329025      19.468437      0.8605887     -0.59525879     210758.06    
    946000   1.106092       0.0004664723   2.9939682e-05  20.060599      18.484418      1.5761811     -1.2044112      207729.79    
    947000   1.192308       0.0004664723   0.00077112679  20.854327      19.155288      1.6990388     -0.63325628     207474.99    
    948000   0.60019036     0.0004664723  -0.00057531772  19.477692      18.62242       0.85527127    -1.0834596      208579.72    
    949000   0.95414368     0.0004664723   0.00016757095  20.374159      19.014504      1.3596547     -0.87883074     207010.71    
    950000   1.127592       0.0004664723   0.00060628248  20.065204      18.458385      1.6068187     -1.245009       208446.89    
    951000   1.0184759      0.0004664723   0.00051340406  21.071516      19.620188      1.4513282     -0.44578813     205356.9     
    952000   1.0585191      0.0004664723   0.0011455254   20.151605      18.643215      1.5083897     -1.2268529      203252.2     
    953000   1.0420934      0.0004664723  -0.001789876    20.099576      18.614593      1.4849831     -1.216589       204281.79    
    954000   1.0043419      0.0004664723   0.00087515024  20.072128      18.640941      1.4311872     -0.999496       209352.75    
    955000   0.67159366     0.0004664723   0.0012994607   19.81893       18.861909      0.95702097    -0.96720417     205185.95    
    956000   1.1382689      0.0004664723   0.0010001994   19.818404      18.196371      1.6220332     -1.2199602      206023.68    
    957000   1.0355429      0.0004664723  -0.00014435848  20.066613      18.590964      1.4756487     -1.0716485      208764.26    
    958000   1.0584267      0.0004664723   0.0012475483   19.842315      18.334057      1.5082581     -1.2736407      208773.89    
    959000   0.9517862      0.0004664723   0.00023585119  20.265321      18.909025      1.3562953     -0.70299697     209699.83    
    960000   0.83008206     0.0004664723  -0.00110188     20.117993      18.935126      1.1828669     -0.76884009     210470.97    
    961000   0.94225002     0.0004664723   0.0010847174   20.348863      19.006157      1.3427063     -1.1112152      209248.71    
    962000   1.1544046      0.0004664723   0.0013668776   19.993791      18.348765      1.6450266     -1.3725992      210334.84    
    963000   0.80042177     0.0004664723   0.0018557381   19.705738      18.565137      1.140601      -1.1504473      205757.38    
    964000   1.1104505      0.0004664723  -0.00025190081  20.281148      18.698756      1.5823919     -0.85471427     206192.58    
    965000   0.97970836     0.0004664723   0.00042402798  20.234519      18.838435      1.3960844     -0.84957045     208998.21    
    966000   1.195202       0.0004664723  -0.0018182127   20.898515      19.195352      1.7031629     -1.0023607      208672.6     
    967000   0.91669236     0.0004664723   0.00051383177  20.012652      18.706366      1.3062866     -0.78933873     206705.01    
    968000   0.82060671     0.0004664723   1.6809434e-05  19.399791      18.230427      1.1693646     -1.3216882      178098.51    
    969000   0.97908916     0.0004664723  -0.00024354999  20.146991      18.751789      1.395202      -0.95769211     204691.49    
    970000   1.0964873      0.0004664723  -0.00028259734  19.903495      18.341         1.5624945     -1.0598233      206009.21    
    971000   1.3335975      0.0004664723  -0.0011323216   21.033815      19.133439      1.9003764     -0.78025691     202325.24    
    972000   0.93552475     0.0004664723  -0.00065280049  20.319104      18.985982      1.3331228     -0.86648549     203181.46    
    973000   1.1441593      0.0004664723   0.0010844206   20.02849       18.398063      1.630427      -1.3584171      202533.78    
    974000   1.0076068      0.0004664723  -0.0020278952   20.391809      18.95597       1.4358396     -1.0561885      207091       
    975000   0.91824617     0.0004664723   0.00019690898  20.546146      19.237645      1.3085008     -0.74211764     205714.97    
    976000   0.93304582     0.0004664723  -0.0014759786   20.096497      18.766907      1.3295903     -1.0383039      202539.89    
    977000   0.87939165     0.0004664723   0.00011886243  19.812159      18.559025      1.2531331     -1.0394283      205727.75    
    978000   1.0439657      0.0004664723  -0.00020475764  19.847916      18.360265      1.4876511     -1.1775067      207244.95    
    979000   1.0052098      0.0004664723   0.00060456582  19.946883      18.514459      1.4324239     -1.042767       207139.18    
    980000   0.89654334     0.0004664723   0.00046143281  19.962838      18.685264      1.2775743     -0.91343461     202771.11    
    981000   0.87105159     0.0004664723   0.00022436703  19.402971      18.161723      1.2412485     -1.496602       204212.45    
    982000   1.3747996      0.0004664723   0.00086597101  20.710058      18.750968      1.9590895     -0.74521422     205998.51    
    983000   1.2303238      0.0004664723   0.0014685464   20.205866      18.452654      1.7532114     -1.2783912      202939       
    984000   0.92429854     0.0004664723   0.002258125    19.723405      18.406279      1.3171254     -1.1645906      207450.89    
    985000   0.75593492     0.0004664723   0.00059398979  19.604258      18.527051      1.0772073     -1.4238432      206857.49    
    986000   0.90964931     0.0004664723  -0.00020328469  20.361576      19.065326      1.2962503     -0.8247823      209172.07    
    987000   1.2152142      0.0004664723  -7.0205634e-05  20.378202      18.646521      1.7316802     -1.127115       208358.55    
    988000   0.91866409     0.0004664723  -0.00016853578  20.277721      18.968624      1.3090963     -1.0029236      206768.87    
    989000   1.016683       0.0004664723  -0.00029239593  20.398644      18.949871      1.4487733     -0.85670955     210987.91    
    990000   0.78636607     0.0004664723  -0.00137609     20.268508      19.147936      1.1205716     -0.82115189     201842.01    
    991000   0.91110735     0.0004664723   0.00026042091  19.865355      18.567027      1.298328      -1.192788       205351.42    
    992000   0.89259658     0.0004664723   0.0003684773   20.000308      18.728358      1.2719501     -1.0068174      205859.21    
    993000   1.3421458      0.0004664723  -0.00034542978  20.28798       18.375422      1.9125578     -1.3241065      207019.32    
    994000   1.2585224      0.0004664723   0.0014616371   20.359244      18.56585       1.7933945     -0.99483249     208094.85    
    995000   1.4894604      0.0004664723   0.00092809914  20.703659      18.581178      2.1224811     -1.0420524      209514.03    
    996000   1.2467137      0.0004664723  -0.00085931306  20.208502      18.431935      1.776567      -1.2754618      208749.83    
    997000   0.99904252     0.0004664723  -0.00027534391  20.326765      18.90313       1.4236356     -1.0608806      206180.72    
    998000   1.1099675      0.0004664723  -0.00015654785  19.898741      18.317037      1.5817037     -1.2103343      202897.29    
    999000   0.93390237     0.0004664723   0.0011550371   20.156448      18.825637      1.3308109     -0.89732976     203230.31    
   1000000   0.89850034     0.0004664723  -0.00067691358  20.245465      18.965102      1.280363      -0.76401234     203840.39    
Loop time of 4.78307 on 1 procs for 1000000 steps with 20 atoms

Performance: 90318579.314 tau/day, 209070.785 timesteps/s
98.7% CPU use with 1 MPI tasks x 1 OpenMP threads

MPI task timing breakdown:
Section |  min time  |  avg time  |  max time  |%varavg| %total
---------------------------------------------------------------
Pair    | 2.1241     | 2.1241     | 2.1241     |   0.0 | 44.41
Bond    | 0.30813    | 0.30813    | 0.30813    |   0.0 |  6.44
Neigh   | 0.57857    | 0.57857    | 0.57857    |   0.0 | 12.10
Comm    | 0.66763    | 0.66763    | 0.66763    |   0.0 | 13.96
Output  | 0.081018   | 0.081018   | 0.081018   |   0.0 |  1.69
Modify  | 0.77436    | 0.77436    | 0.77436    |   0.0 | 16.19
Other   |            | 0.2493     |            |       |  5.21

Nlocal:             20 ave          20 max          20 min
Histogram: 1 0 0 0 0 0 0 0 0 0
Nghost:             64 ave          64 max          64 min
Histogram: 1 0 0 0 0 0 0 0 0 0
Neighs:            171 ave         171 max         171 min
Histogram: 1 0 0 0 0 0 0 0 0 0

Total # of neighbors = 171
Ave neighs/atom = 8.55
Ave special neighs/atom = 1.9
Neighbor list builds = 83442
Dangerous builds = 21705

write_data      ${outputfile_assembled} nofix nocoeff
write_data      4_assembled.data nofix nocoeff
System init for write_data ...
Generated 0 of 6 mixed pair_coeff terms from geometric mixing rule

Total wall time: 0:00:05
