ITEM: TIMESTEP
0
ITEM: NUMBER OF ATOMS
20
ITEM: BOX BOUNDS pp pp pp
0.0000000000000000e+00 3.5000000000000000e+01
0.0000000000000000e+00 3.5000000000000000e+01
0.0000000000000000e+00 3.5000000000000000e+01
ITEM: ATOMS id type xu yu zu vx vy vz
18 4 8.97406 35.11 27.9415 -1.03458 -1.27511 1.01273
16 2 9.23292 33.7557 27.8518 -1.5027 1.00338 0.146604
17 3 8.49841 34.3882 27.5297 0.407599 -0.00777993 0.726273
14 1 10.8146 33.8399 27.4272 1.12132 0.312148 0.666475
13 2 11.366 33.2617 26.8793 1.40442 -2.13723 -0.628645
15 1 10.0588 33.2507 27.5856 -1.27915 0.189978 -0.522976
19 1 8.81643 34.4349 28.6377 -0.63164 -0.204467 0.0122177
4 4 15.1512 32.3304 24.0323 -0.105505 0.685678 -2.11642
6 2 15.5603 31.5612 25.1549 -1.19717 0.526759 0.716831
1 1 12.912 32.6407 24.7181 -1.69831 1.25786 0.779409
3 4 14.5731 32.1969 24.7483 0.838522 0.206808 -0.262926
2 2 13.854 32.8412 24.8204 0.780543 0.936838 -0.225182
5 1 16.0357 32.1773 24.5982 2.0823 -2.3872 -0.0482765
8 3 13.8166 30.8138 24.9794 -0.858965 -1.04219 -0.174263
7 3 14.7911 30.9722 25.2043 2.70381 -0.095434 0.500479
9 2 13.5141 31.1065 25.9155 0.07457 0.00940228 -0.252678
11 1 12.3068 32.1651 26.8601 1.33824 0.747062 0.945108
10 1 12.7121 31.5696 26.2721 -0.893993 -0.136844 -0.821547
12 2 12.2126 33.1224 27.341 -1.94507 -0.302271 -0.314273
20 2 9.40307 34.0528 29.2865 0.395758 1.71262 -0.138939
