LAMMPS (23 Jun 2022 - Update 1)
OMP_NUM_THREADS environment is not set. Defaulting to 1 thread. (src/comm.cpp:98)
  using 1 OpenMP thread(s) per MPI task


variable        runtime equal 1000000
variable		subsample_rate equal 1000

variable		outputfile_created string '3_created.data'
variable		outputfile_relaxed string '5_relaxed.data'
variable		outputfile_selfasb string '6_a_self_assemble.lammpstrj'
variable		outputfile_trajlin string '6_b_trajlin.data'
variable		outputfile_assembled string '7_assembled.data'

units           lj
atom_style      full
dimension       3
boundary        p p p
timestep        0.005

read_data       ${outputfile_created}
read_data       3_created.data
Reading data file ...
  orthogonal box = (0 0 0) to (35 35 35)
  1 by 1 by 1 MPI processor grid
  reading atoms ...
  100 atoms
  reading velocities ...
  100 velocities
  scanning bonds ...
  1 = max bonds/atom
  reading bonds ...
  99 bonds
Finding 1-2 1-3 1-4 neighbors ...
  special bond factors lj:    0        0        0       
  special bond factors coul:  0        0        0       
     2 = max # of 1-2 neighbors
     2 = max # of 1-3 neighbors
     4 = max # of 1-4 neighbors
     6 = max # of special neighbors
  special bonds CPU = 0.000 seconds
  read_data CPU = 0.006 seconds

bond_style      fene
bond_coeff      * 30.0 1.5 1.0 1.0
special_bonds   fene
Finding 1-2 1-3 1-4 neighbors ...
  special bond factors lj:    0        1        1       
  special bond factors coul:  0        1        1       
     2 = max # of 1-2 neighbors
     6 = max # of special neighbors
  special bonds CPU = 0.000 seconds

variable        Temp equal 1.0
variable        velSeed equal 926458

velocity        all create ${Temp} ${velSeed}
velocity        all create 1 ${velSeed}
velocity        all create 1 926458

### Output
thermo_style    custom step temp density press etotal pe ke epair spcpu
thermo          1000

###########################################################################
# Soft relaxation (to remove overlaps of particles)
######################################################################

pair_style      soft 1.0
pair_coeff      * * 0.0
variable        prefactor equal ramp(0,300)
fix             rampSoft all adapt 1 pair soft a * * v_prefactor

minimize        0.0 1.0e-8 1000 100000
WARNING: Using 'neigh_modify every 1 delay 0 check yes' setting during minimization (src/min.cpp:187)
Generated 0 of 6 mixed pair_coeff terms from geometric mixing rule
Neighbor list info ...
  update every 1 steps, delay 0 steps, check yes
  max neighbors/atom: 2000, page size: 100000
  master list distance cutoff = 1.3
  ghost atom cutoff = 1.3
  binsize = 0.65, bins = 54 54 54
  1 neighbor lists, perpetual/occasional/extra = 1 0 0
  (1) pair soft, perpetual
      attributes: half, newton on
      pair build: half/bin/newton
      stencil: half/bin/3d
      bin: standard
WARNING: Communication cutoff 1.3 is shorter than a bond length based estimate of 1.7550000000000001. This may lead to errors. (src/comm.cpp:727)
Per MPI rank memory allocation (min/avg/max) = 8.346 | 8.346 | 8.346 Mbytes
   Step          Temp         Density         Press          TotEng         PotEng         KinEng         E_pair         S/CPU     
         0   1              0.0023323615  -0.0039617958   21.524174      20.039174      1.485          0              0            
       362   1              0.0023323615   0.0023090379   21.485548      20.000548      1.485          0              67787.469    
Loop time of 0.0053422 on 1 procs for 362 steps with 100 atoms

96.8% CPU use with 1 MPI tasks x 1 OpenMP threads

Minimization stats:
  Stopping criterion = force tolerance
  Energy initial, next-to-last, final = 
      20.0391741078675   20.0005480767337   20.0005480767337
  Force two-norm initial, final = 11.878422 7.9509778e-09
  Force max component initial, final = 6.6117807 1.3572772e-09
  Final line search alpha, max atom move = 1 1.3572772e-09
  Iterations, force evaluations = 362 738

MPI task timing breakdown:
Section |  min time  |  avg time  |  max time  |%varavg| %total
---------------------------------------------------------------
Pair    | 0.00021319 | 0.00021319 | 0.00021319 |   0.0 |  3.99
Bond    | 0.0023459  | 0.0023459  | 0.0023459  |   0.0 | 43.91
Neigh   | 0.0016026  | 0.0016026  | 0.0016026  |   0.0 | 30.00
Comm    | 0.00019666 | 0.00019666 | 0.00019666 |   0.0 |  3.68
Output  | 0          | 0          | 0          |   0.0 |  0.00
Modify  | 0          | 0          | 0          |   0.0 |  0.00
Other   |            | 0.0009838  |            |       | 18.42

Nlocal:            100 ave         100 max         100 min
Histogram: 1 0 0 0 0 0 0 0 0 0
Nghost:             20 ave          20 max          20 min
Histogram: 1 0 0 0 0 0 0 0 0 0
Neighs:              0 ave           0 max           0 min
Histogram: 1 0 0 0 0 0 0 0 0 0

Total # of neighbors = 0
Ave neighs/atom = 0
Ave special neighs/atom = 1.98
Neighbor list builds = 17
Dangerous builds = 0

fix             nvtSoft all nvt temp ${Temp} ${Temp} 0.5
fix             nvtSoft all nvt temp 1 ${Temp} 0.5
fix             nvtSoft all nvt temp 1 1 0.5
run             100000
Generated 0 of 6 mixed pair_coeff terms from geometric mixing rule
WARNING: Communication cutoff 1.3 is shorter than a bond length based estimate of 1.7550000000000001. This may lead to errors. (src/comm.cpp:727)
Per MPI rank memory allocation (min/avg/max) = 7.221 | 7.221 | 7.221 Mbytes
   Step          Temp         Density         Press          TotEng         PotEng         KinEng         E_pair         S/CPU     
       362   1              0.0023323615   0.0023090379   21.485548      20.000548      1.485          0              0            
      1000   0.90989032     0.0023323615  -0.0021940042   21.776974      20.425787      1.3511871      0.00036425437  78793.379    
      2000   0.86546688     0.0023323615   0.0034714157   21.677128      20.39191       1.2852183      0.0025814786   77810.645    
      3000   0.98199538     0.0023323615   0.0028144228   21.866132      20.407869      1.4582631      0.0011756043   74096.819    
      4000   1.004495       0.0023323615  -0.0014058211   21.945624      20.453949      1.4916751      0.011986179    74377.805    
      5000   1.1222705      0.0023323615   0.0044495116   21.986385      20.319813      1.6665718      0.0050317639   74306.654    
      6000   1.0538243      0.0023323615   0.0023957538   21.985713      20.420784      1.564929       0.012100514    75280.627    
      7000   1.0210598      0.0023323615  -0.00038820026  21.904665      20.388391      1.5162738      0              77371.073    
      8000   0.94819751     0.0023323615   0.0024943091   21.747889      20.339816      1.4080733      0              77355.835    
      9000   0.92364502     0.0023323615   0.0020053029   21.724166      20.352554      1.3716129      1.7780894e-05  76168.25     
     10000   0.86685188     0.0023323615   0.00078277366  21.644879      20.357604      1.287275       0.0098636418   76590.826    
     11000   1.0057103      0.0023323615   0.00010113276  21.8558        20.362321      1.4934798      0.020705341    76167.727    
     12000   0.97901664     0.0023323615  -0.0026996968   21.871206      20.417366      1.4538397      0.0052928539   76051.139    
     13000   0.97718436     0.0023323615  -6.1641422e-06  21.963706      20.512587      1.4511188      0.025022446    75871.636    
     14000   1.0530014      0.0023323615  -0.0009993112   21.947994      20.384287      1.5637071      0.0020860456   74854.104    
     15000   0.99094527     0.0023323615   0.0011068478   21.895146      20.423592      1.4715537      0.0015091113   76231.429    
     16000   0.91285091     0.0023323615  -0.00025424173  21.87524       20.519657      1.3555836      0.0047853639   75666.987    
     17000   0.82806978     0.0023323615  -0.00054698156  21.701984      20.472301      1.2296836      0              75986.814    
     18000   1.043278       0.0023323615  -6.6143919e-05  22.003299      20.454031      1.5492679      0.0034319132   76793.886    
     19000   1.0879249      0.0023323615  -0.0017804642   21.998985      20.383416      1.6155685      0.015376175    75262.242    
     20000   1.1144506      0.0023323615   0.0025198298   22.190904      20.535944      1.6549592      0              76409.12     
     21000   1.0427751      0.0023323615   0.0011345349   22.099492      20.550971      1.548521       0.00040047813  76624.636    
     22000   1.0586695      0.0023323615   0.0017882747   22.05673       20.484606      1.5721242      0              76459.52     
     23000   1.0058426      0.0023323615  -0.0055245362   21.954628      20.460951      1.4936763      0.0027619031   75338.301    
     24000   0.98273442     0.0023323615   0.0015147357   21.862067      20.402707      1.4593606      0              75697.637    
     25000   0.95835343     0.0023323615   0.0017808774   21.937761      20.514606      1.4231548      0.00020839942  75783.962    
     26000   0.93993778     0.0023323615  -0.0021777292   21.884849      20.489042      1.3958076      0.0088889834   76245.402    
     27000   0.9308188      0.0023323615  -0.00011239942  21.842252      20.459986      1.3822659      0.021612409    75199.81     
     28000   1.0149581      0.0023323615   0.0041996387   21.906846      20.399633      1.5072129      0.0064059022   75728.363    
     29000   0.92841138     0.0023323615  -2.5398808e-05  21.987185      20.608494      1.3786909      0.0046112484   75537.287    
     30000   1.021043       0.0023323615   0.001589158    22.097958      20.581709      1.5162489      0.016799508    73434.897    
     31000   1.0465985      0.0023323615  -0.0021744286   22.037917      20.483718      1.5541987      0.0057879149   76309.874    
     32000   0.98907108     0.0023323615  -0.0015558606   22.044089      20.575318      1.4687705      0.009448173    75664.755    
     33000   1.0918536      0.0023323615  -0.0025643847   22.039275      20.417873      1.6214025      0              74832.157    
     34000   0.99801543     0.0023323615   0.0016279766   21.932339      20.450286      1.4820529      0.017384617    77431.99     
     35000   1.0352271      0.0023323615  -0.0052971711   22.076004      20.538692      1.5373122      0.00010473809  75896.622    
     36000   1.1141579      0.0023323615  -0.00093279925  22.222491      20.567966      1.6545245      0.00033678641  77006.285    
     37000   1.0369415      0.0023323615   0.00013065175  22.217841      20.677983      1.5398581      0.013788831    75888.023    
     38000   1.0515596      0.0023323615   0.0021717558   22.070766      20.5092        1.561566       0.0067894678   76345.593    
     39000   1.0238495      0.0023323615   0.00026414509  22.040141      20.519725      1.5204165      0.00044464649  75495.925    
     40000   1.0749111      0.0023323615  -0.0026849368   22.039327      20.443084      1.596243       0.012651334    73766.936    
     41000   0.99070886     0.0023323615  -0.0030385564   22.03241       20.561207      1.4712027      0.00092855646  77441.362    
     42000   0.95315224     0.0023323615   0.0019788197   21.965263      20.549832      1.4154311      0.020233689    75719.395    
     43000   1.0644183      0.0023323615  -0.0011168725   22.287172      20.706511      1.5806611      0.039694129    75800.248    
     44000   1.0253747      0.0023323615  -0.006676522    22.066233      20.543552      1.5226814      0              74802.048    
     45000   0.94179556     0.0023323615  -0.0047206018   21.970644      20.572077      1.3985664      0.019869988    75333.358    
     46000   1.0083495      0.0023323615  -0.0017646918   21.972114      20.474715      1.497399       0.00026040605  75285.286    
     47000   0.98767959     0.0023323615  -0.00080218158  22.091674      20.62497       1.4667042      0.024266258    75049.523    
     48000   1.1473449      0.0023323615  -0.0025885687   22.080512      20.376705      1.7038072      0.00065962995  75613.852    
     49000   1.0679312      0.0023323615   0.0017688272   21.970482      20.384604      1.5858779      0.014142422    76766.774    
     50000   0.9581935      0.0023323615   0.0014398836   21.955202      20.532284      1.4229173      0.0055011948   76386.964    
     51000   1.0215759      0.0023323615  -0.00093292688  21.934681      20.41764       1.5170402      0              75786.61     
     52000   0.98079591     0.0023323615   0.0040701936   21.977374      20.520892      1.4564819      0.0020862422   76782.777    
     53000   1.0090927      0.0023323615   0.0013324753   22.095438      20.596935      1.4985027      0              75931.263    
     54000   0.97519627     0.0023323615   0.0013260734   22.070151      20.621984      1.4481665      0.026885444    76855.917    
     55000   1.1805087      0.0023323615  -0.001586238    22.424088      20.671033      1.7530554      0.024690954    76475.747    
     56000   0.98387121     0.0023323615   0.0037155145   22.104425      20.643376      1.4610487      0.01435493     76099.03     
     57000   1.0723812      0.0023323615  -0.0037916262   22.122726      20.53024       1.592486       0.013635549    76484.655    
     58000   1.0152349      0.0023323615   0.00021908047  22.082827      20.575203      1.5076238      0.00077375639  76397.894    
     59000   1.1424502      0.0023323615  -0.0052108657   22.30072       20.604182      1.6965385      0.013308184    77379.826    
     60000   1.0359703      0.0023323615  -0.00097887545  22.188218      20.649802      1.538416       0.00011346294  75600.396    
     61000   1.1646839      0.0023323615  -0.002085017    22.239945      20.51039       1.7295556      0.012918477    77605.438    
     62000   1.101836       0.0023323615   0.0010338878   22.171386      20.53516       1.6362265      0.001396566    76658.822    
     63000   0.96616435     0.0023323615   0.00097550571  21.903821      20.469067      1.4347541      0.013027663    77894.451    
     64000   1.0068907      0.0023323615  -0.0020278726   22.061652      20.566419      1.4952327      0.013750276    76469.536    
     65000   0.98723233     0.0023323615   0.0022441476   22.031073      20.565033      1.46604        0.0066686189   76788.39     
     66000   1.0273881      0.0023323615  -0.0003515278   22.183579      20.657908      1.5256713      0              75055.393    
     67000   0.96528212     0.0023323615  -0.00014822656  21.9396        20.506156      1.4334439      0.010365557    76877.873    
     68000   1.069702       0.0023323615   9.4754668e-05  22.081119      20.492611      1.5885075      0.00049153926  74023.02     
     69000   1.1229502      0.0023323615   0.0011504079   22.200329      20.532748      1.6675811      0.0068454249   76953.095    
     70000   1.0062775      0.0023323615  -0.00085311964  22.094021      20.599699      1.4943221      0.013222355    75300.848    
     71000   1.0906935      0.0023323615   0.00015260357  22.145362      20.525682      1.6196798      0.018338513    76130.546    
     72000   1.010401       0.0023323615  -6.0487182e-06  22.154105      20.653659      1.5004455      0.0013793953   74834.968    
     73000   1.1177599      0.0023323615  -0.0034084797   22.254435      20.594562      1.6598735      0.00011231735  77708.09     
     74000   0.9768019      0.0023323615   0.00016143893  22.07312       20.622569      1.4505508      0.0084515956   75440.685    
     75000   1.1360996      0.0023323615   0.002159116    22.161595      20.474487      1.6871079      0.0089909162   76371.825    
     76000   0.97379329     0.0023323615  -0.00068458621  21.988928      20.542845      1.446083       0              75565.713    
     77000   0.94876793     0.0023323615  -0.0016073976   21.923496      20.514575      1.4089204      0.017745108    75787.925    
     78000   0.83947996     0.0023323615  -0.00062768559  21.726727      20.480099      1.2466277      0.0054510099   75048.735    
     79000   1.0090614      0.0023323615  -0.00080262643  22.068192      20.569736      1.4984562      0.00023011166  76786.203    
     80000   1.1217643      0.0023323615  -0.0038177864   22.367902      20.702082      1.66582        0.032902439    76078.963    
     81000   1.0240158      0.0023323615   0.00023547123  22.031597      20.510933      1.5206635      0.0068767308   75535.747    
     82000   1.003236       0.0023323615  -0.0022802982   21.894199      20.404393      1.4898055      0.019136282    73869.347    
     83000   1.0554159      0.0023323615   0.004011718    22.104562      20.537269      1.5672927      0.0080869707   73978.198    
     84000   0.83527346     0.0023323615  -0.0034122221   21.874648      20.634267      1.2403811      0.0030083664   75546.492    
     85000   1.036002       0.0023323615   0.0013573923   21.962923      20.42446       1.5384629      0.015709144    76331.758    
     86000   0.9432002      0.0023323615  -0.0032183248   21.913588      20.512936      1.4006523      0.013730309    76178.131    
     87000   0.95566008     0.0023323615  -0.00049614223  21.91653       20.497375      1.4191552      0.0035862035   75327.501    
     88000   0.93373351     0.0023323615  -0.00097093893  21.870485      20.483891      1.3865943      0.0018212145   74649.6      
     89000   0.9684944      0.0023323615  -0.00047342045  21.973429      20.535215      1.4382142      0.00087524744  75420.225    
     90000   0.98293324     0.0023323615  -0.0032204602   22.050919      20.591263      1.4596559      0.015353933    76841.182    
     91000   1.0832827      0.0023323615   0.0048517083   22.11977       20.511095      1.6086749      0.0052867789   77861.572    
     92000   0.85899662     0.0023323615  -0.0013049519   21.765697      20.490087      1.27561        0.0024124001   76741.636    
     93000   0.96176266     0.0023323615  -4.4223672e-05  21.874222      20.446004      1.4282176      0.0045653365   77333.839    
     94000   0.96019503     0.0023323615   0.00024459347  21.944954      20.519064      1.4258896      3.8053462e-05  76713.861    
     95000   0.94702149     0.0023323615  -0.0033658915   21.86315       20.456823      1.4063269      0              77302.633    
     96000   0.91119348     0.0023323615  -0.0013197298   21.825018      20.471896      1.3531223      0.00043282989  75961.89     
     97000   1.0016687      0.0023323615  -0.0019514304   22.013024      20.525546      1.487478       0.0048369955   75479.309    
     98000   1.02143        0.0023323615  -0.0057874974   22.177965      20.661142      1.5168235      0              74480.09     
     99000   1.032786       0.0023323615   0.0018228259   21.975336      20.441649      1.5336871      7.1595851e-05  77691.578    
    100000   1.0594928      0.0023323615   0.0036169719   22.011024      20.437677      1.5733468      0.00032948157  75938.194    
    100362   1.1904942      0.0023323615  -0.00089755607  22.316856      20.548972      1.7678839      0.00063845255  75053.408    
Loop time of 1.31614 on 1 procs for 100000 steps with 100 atoms

Performance: 32823296.959 tau/day, 75979.854 timesteps/s
99.4% CPU use with 1 MPI tasks x 1 OpenMP threads

MPI task timing breakdown:
Section |  min time  |  avg time  |  max time  |%varavg| %total
---------------------------------------------------------------
Pair    | 0.049638   | 0.049638   | 0.049638   |   0.0 |  3.77
Bond    | 0.13002    | 0.13002    | 0.13002    |   0.0 |  9.88
Neigh   | 0.79929    | 0.79929    | 0.79929    |   0.0 | 60.73
Comm    | 0.058885   | 0.058885   | 0.058885   |   0.0 |  4.47
Output  | 0.0010851  | 0.0010851  | 0.0010851  |   0.0 |  0.08
Modify  | 0.24487    | 0.24487    | 0.24487    |   0.0 | 18.61
Other   |            | 0.03234    |            |       |  2.46

Nlocal:            100 ave         100 max         100 min
Histogram: 1 0 0 0 0 0 0 0 0 0
Nghost:             60 ave          60 max          60 min
Histogram: 1 0 0 0 0 0 0 0 0 0
Neighs:             36 ave          36 max          36 min
Histogram: 1 0 0 0 0 0 0 0 0 0

Total # of neighbors = 36
Ave neighs/atom = 0.36
Ave special neighs/atom = 1.98
Neighbor list builds = 9821
Dangerous builds = 8265
unfix           nvtSoft
unfix           rampSoft
reset_timestep  0

write_data      ${outputfile_relaxed}
write_data      5_relaxed.data
System init for write_data ...
Generated 0 of 6 mixed pair_coeff terms from geometric mixing rule
WARNING: Communication cutoff 1.3 is shorter than a bond length based estimate of 1.7550000000000001. This may lead to errors. (src/comm.cpp:727)
WARNING: Not all mixed pair coeffs generated from mixing. Use write_data with 'pair ij' option to store all pair coeffs. (src/write_data.cpp:309)

###########################################################################
# Full LJ with Coulomb
######################################################################

# Cutoffs and parameters:
# - Values: Marcel Verkade's Bachelor Thesis
# - Mapping to atom groups: Patrick Onck's paper
# - 1: aliphatic, 2: aromatic, 3: anion, 4: cation
# pair_style	lj/cut/coul/cut <lj_cut_global> <coul_cut_global>
# pair_coeff	<type_1>  <type_2>  <eps>  <sigma>  <r_cut_lj>  <r_cut_coul>

# Problem: Onck's model is much more complex, and Marcel has no sigma reported
# Using sigma=1 randomly

variable		glob_ljeps equal 1.0
variable		glob_ljsig 	equal 1.0
variable		glob_coulcut equal 10.0
variable		att_ljcut equal 2.50
variable		rep_ljcut equal 1.12

pair_style		lj/cut/coul/cut 						${att_ljcut} 	${glob_coulcut}
pair_style		lj/cut/coul/cut 						2.5 	${glob_coulcut}
pair_style		lj/cut/coul/cut 						2.5 	10
pair_coeff		1 1 	${glob_ljeps} 	${glob_ljsig}	${att_ljcut} 	${glob_coulcut}
pair_coeff		1 1 	1 	${glob_ljsig}	${att_ljcut} 	${glob_coulcut}
pair_coeff		1 1 	1 	1	${att_ljcut} 	${glob_coulcut}
pair_coeff		1 1 	1 	1	2.5 	${glob_coulcut}
pair_coeff		1 1 	1 	1	2.5 	10
pair_coeff		1 2 	${glob_ljeps} 	${glob_ljsig}	${att_ljcut} 	${glob_coulcut}
pair_coeff		1 2 	1 	${glob_ljsig}	${att_ljcut} 	${glob_coulcut}
pair_coeff		1 2 	1 	1	${att_ljcut} 	${glob_coulcut}
pair_coeff		1 2 	1 	1	2.5 	${glob_coulcut}
pair_coeff		1 2 	1 	1	2.5 	10
pair_coeff		1 3 	${glob_ljeps} 	${glob_ljsig}	${rep_ljcut} 	${glob_coulcut}
pair_coeff		1 3 	1 	${glob_ljsig}	${rep_ljcut} 	${glob_coulcut}
pair_coeff		1 3 	1 	1	${rep_ljcut} 	${glob_coulcut}
pair_coeff		1 3 	1 	1	1.12 	${glob_coulcut}
pair_coeff		1 3 	1 	1	1.12 	10
pair_coeff		1 4 	${glob_ljeps} 	${glob_ljsig}	${rep_ljcut} 	${glob_coulcut}
pair_coeff		1 4 	1 	${glob_ljsig}	${rep_ljcut} 	${glob_coulcut}
pair_coeff		1 4 	1 	1	${rep_ljcut} 	${glob_coulcut}
pair_coeff		1 4 	1 	1	1.12 	${glob_coulcut}
pair_coeff		1 4 	1 	1	1.12 	10
pair_coeff		2 2 	${glob_ljeps} 	${glob_ljsig}	${att_ljcut} 	${glob_coulcut}
pair_coeff		2 2 	1 	${glob_ljsig}	${att_ljcut} 	${glob_coulcut}
pair_coeff		2 2 	1 	1	${att_ljcut} 	${glob_coulcut}
pair_coeff		2 2 	1 	1	2.5 	${glob_coulcut}
pair_coeff		2 2 	1 	1	2.5 	10
pair_coeff		2 3 	${glob_ljeps} 	${glob_ljsig}	${rep_ljcut} 	${glob_coulcut}
pair_coeff		2 3 	1 	${glob_ljsig}	${rep_ljcut} 	${glob_coulcut}
pair_coeff		2 3 	1 	1	${rep_ljcut} 	${glob_coulcut}
pair_coeff		2 3 	1 	1	1.12 	${glob_coulcut}
pair_coeff		2 3 	1 	1	1.12 	10
pair_coeff		2 4 	${glob_ljeps} 	${glob_ljsig}	${att_ljcut} 	${glob_coulcut}
pair_coeff		2 4 	1 	${glob_ljsig}	${att_ljcut} 	${glob_coulcut}
pair_coeff		2 4 	1 	1	${att_ljcut} 	${glob_coulcut}
pair_coeff		2 4 	1 	1	2.5 	${glob_coulcut}
pair_coeff		2 4 	1 	1	2.5 	10
pair_coeff		3 3 	${glob_ljeps} 	${glob_ljsig}	${rep_ljcut} 	${glob_coulcut}
pair_coeff		3 3 	1 	${glob_ljsig}	${rep_ljcut} 	${glob_coulcut}
pair_coeff		3 3 	1 	1	${rep_ljcut} 	${glob_coulcut}
pair_coeff		3 3 	1 	1	1.12 	${glob_coulcut}
pair_coeff		3 3 	1 	1	1.12 	10
pair_coeff		3 4 	${glob_ljeps} 	${glob_ljsig}	${att_ljcut} 	${glob_coulcut}
pair_coeff		3 4 	1 	${glob_ljsig}	${att_ljcut} 	${glob_coulcut}
pair_coeff		3 4 	1 	1	${att_ljcut} 	${glob_coulcut}
pair_coeff		3 4 	1 	1	2.5 	${glob_coulcut}
pair_coeff		3 4 	1 	1	2.5 	10
pair_coeff		4 4 	${glob_ljeps} 	${glob_ljsig}	${rep_ljcut} 	${glob_coulcut}
pair_coeff		4 4 	1 	${glob_ljsig}	${rep_ljcut} 	${glob_coulcut}
pair_coeff		4 4 	1 	1	${rep_ljcut} 	${glob_coulcut}
pair_coeff		4 4 	1 	1	1.12 	${glob_coulcut}
pair_coeff		4 4 	1 	1	1.12 	10


fix             noDriftRot 	all momentum 10 linear 1 1 1 angular
fix             nvt1 		all nvt temp ${Temp} ${Temp} 0.5
fix             nvt1 		all nvt temp 1 ${Temp} 0.5
fix             nvt1 		all nvt temp 1 1 0.5

# dump          assemble 	all custom 1000 				${outputfile_selfasb} id type xu yu zu vx vy vz
dump            lindump 	all custom ${subsample_rate} 	${outputfile_trajlin} id type xu yu zu vx vy vz
dump            lindump 	all custom 1000 	${outputfile_trajlin} id type xu yu zu vx vy vz
dump            lindump 	all custom 1000 	6_b_trajlin.data id type xu yu zu vx vy vz

run             ${runtime}
run             1000000
Generated 0 of 6 mixed pair_coeff terms from geometric mixing rule
Neighbor list info ...
  update every 1 steps, delay 10 steps, check yes
  max neighbors/atom: 2000, page size: 100000
  master list distance cutoff = 10.3
  ghost atom cutoff = 10.3
  binsize = 5.15, bins = 7 7 7
  1 neighbor lists, perpetual/occasional/extra = 1 0 0
  (1) pair lj/cut/coul/cut, perpetual
      attributes: half, newton on
      pair build: half/bin/newton
      stencil: half/bin/3d
      bin: standard
Per MPI rank memory allocation (min/avg/max) = 7.712 | 7.712 | 7.712 Mbytes
   Step          Temp         Density         Press          TotEng         PotEng         KinEng         E_pair         S/CPU     
         0   1.1904942      0.0023323615  -0.001464878    21.874442      20.106558      1.7678839     -0.44177594     0            
      1000   1.0196967      0.0023323615  -0.0015541644   21.345866      19.831616      1.5142496     -0.73575201     32509.805    
      2000   0.82813152     0.0023323615  -0.0036891064   20.954845      19.72507       1.2297753     -0.85901349     29611.499    
      3000   1.0593291      0.0023323615   0.00049220498  20.974982      19.401879      1.5731037     -1.0790135      25072.874    
      4000   0.95610185     0.0023323615   0.0020756382   20.488624      19.068813      1.4198113     -1.4848075      20080.875    
      5000   0.89150885     0.0023323615  -0.0048471561   20.137676      18.813785      1.3238906     -1.6854218      18372.363    
      6000   1.0202794      0.0023323615   0.0033588822   20.386266      18.871151      1.5151149     -1.4993027      18459.944    
      7000   0.93922572     0.0023323615  -0.0045270899   20.444112      19.049362      1.3947502     -1.4832648      18396.944    
      8000   0.97374945     0.0023323615  -0.0023659368   20.289118      18.8431        1.4460179     -1.6117397      17976.105    
      9000   0.99985336     0.0023323615  -0.002363695    20.341109      18.856327      1.4847822     -1.6082407      18371.484    
     10000   1.0166588      0.0023323615  -0.0027254811   20.567852      19.058114      1.5097383     -1.449442       18306.527    
     11000   0.88669046     0.0023323615  -0.0030853754   20.446359      19.129624      1.3167353     -1.3892799      18283.493    
     12000   0.95592547     0.0023323615  -0.00087380065  20.491671      19.072121      1.4195493     -1.3513405      18332.168    
     13000   0.9202956      0.0023323615   0.00062134148  20.338791      18.972152      1.366639      -1.5001597      18316.491    
     14000   0.96690571     0.0023323615   0.0028087638   20.082944      18.647089      1.435855      -1.7901906      18211.111    
     15000   1.005339       0.0023323615  -0.0039709437   20.391453      18.898525      1.4929283     -1.6038969      18158.698    
     16000   0.92394264     0.0023323615  -0.0047057246   20.240497      18.868442      1.3720548     -1.6938331      18051.565    
     17000   1.0100926      0.0023323615   0.0029798517   20.462106      18.962118      1.4999875     -1.6044428      18013.351    
     18000   1.129158       0.0023323615   0.0034916309   20.390157      18.713357      1.6767997     -1.8361221      18102.615    
     19000   0.82814431     0.0023323615  -0.0018414711   20.22347       18.993676      1.2297943     -1.6250492      18246.323    
     20000   0.95861532     0.0023323615   0.00022563755  20.306528      18.882985      1.4235437     -1.6715573      18292.077    
     21000   0.97504772     0.0023323615   0.0014215509   20.761962      19.314016      1.4479459     -1.337714       18388.078    
     22000   1.1981988      0.0023323615  -0.00052348869  20.96586       19.186535      1.7793253     -1.4240171      18304.869    
     23000   0.90345162     0.0023323615   0.00036398473  20.348806      19.00718       1.3416257     -1.3944624      18240.254    
     24000   1.0152238      0.0023323615   0.00071954437  20.516642      19.009035      1.5076074     -1.4645542      18332.494    
     25000   0.92836176     0.0023323615  -0.0011273463   20.4103        19.031683      1.3786172     -1.3859136      18427.842    
     26000   0.82868935     0.0023323615   0.0013061531   20.446261      19.215658      1.2306037     -1.2833393      18572.163    
     27000   1.0633016      0.0023323615  -0.0014219266   20.878374      19.299371      1.5790028     -1.2971158      18722.491    
     28000   1.0813989      0.0023323615   0.0020485707   20.697499      19.091621      1.6058774     -1.4387922      19015.736    
     29000   1.1292053      0.0023323615   0.0053029982   20.993855      19.316986      1.6768699     -1.1762927      19149.995    
     30000   1.0073347      0.0023323615   0.0020888261   20.565776      19.069884      1.495892      -1.374768       18831.648    
     31000   1.0082399      0.0023323615  -0.0060595353   20.726133      19.228897      1.4972363     -1.371587       18886.523    
     32000   0.9790988      0.0023323615   0.0047137708   20.444312      18.990351      1.4539617     -1.5826191      18826.381    
     33000   1.0551736      0.0023323615  -0.0035159292   20.913598      19.346665      1.5669328     -1.1688007      18504.866    
     34000   1.0217906      0.0023323615  -0.0055683413   20.652327      19.134968      1.517359      -1.4318761      18295.692    
     35000   1.1467805      0.0023323615  -0.00080007202  20.457091      18.754122      1.7029691     -1.7410798      18139.61     
     36000   0.95413469     0.0023323615  -0.001894208    20.439586      19.022696      1.41689       -1.5615738      18133.876    
     37000   0.79485813     0.0023323615   0.00024720948  20.259591      19.079227      1.1803643     -1.6038223      18200.196    
     38000   1.0378551      0.0023323615  -0.0016942981   20.611658      19.070443      1.5412148     -1.331529       18362.541    
     39000   1.0314059      0.0023323615  -0.00034206774  20.56621       19.034572      1.5316378     -1.5466202      18198.61     
     40000   1.1306442      0.0023323615   0.001081135    20.443503      18.764496      1.6790066     -1.6914796      18176.882    
     41000   1.0611679      0.0023323615  -0.0019441857   20.553472      18.977638      1.5758343     -1.4834767      18140.414    
     42000   0.96254766     0.0023323615  -0.001549461    20.562631      19.133248      1.4293833     -1.3514485      18150.634    
     43000   0.97497869     0.0023323615  -0.00090529728  20.493256      19.045413      1.4478434     -1.5093686      18127.717    
     44000   0.98687477     0.0023323615   0.0010713536   20.443493      18.977984      1.465509      -1.6171507      18146.856    
     45000   1.0058677      0.0023323615  -0.0025766293   20.450488      18.956774      1.4937135     -1.5795646      18076.362    
     46000   0.89152509     0.0023323615   0.0034775169   20.613291      19.289376      1.3239148     -1.2930077      18112.773    
     47000   0.9338123      0.0023323615  -1.0690344e-05  20.509924      19.123213      1.3867113     -1.5297257      18181.167    
     48000   1.1425737      0.0023323615  -0.0017597509   20.310087      18.613365      1.696722      -1.8433557      17957.086    
     49000   0.98848398     0.0023323615  -0.00074962969  20.417351      18.949452      1.4678987     -1.7207346      18054.703    
     50000   1.0185194      0.0023323615   0.0009588694   20.216535      18.704034      1.5125013     -1.7530401      17997.264    
     51000   1.1297837      0.0023323615  -0.00071603855  20.581148      18.903419      1.6777288     -1.5469502      18002.536    
     52000   0.93562911     0.0023323615  -0.00033170149  20.23423       18.844821      1.3894092     -1.6056329      17974.166    
     53000   0.97246414     0.0023323615   0.0017461399   20.492359      19.04825       1.4441092     -1.4983779      18134.63     
     54000   1.032523       0.0023323615   0.0010542655   20.455254      18.921957      1.5332966     -1.6108571      18105.574    
     55000   0.90086075     0.0023323615  -0.0003814696   20.548277      19.210499      1.3377782     -1.4523499      18230.826    
     56000   1.0398057      0.0023323615  -0.004280676    20.429524      18.885412      1.5441115     -1.6359203      18252.809    
     57000   0.92166107     0.0023323615  -0.00050691556  20.170219      18.801552      1.3686667     -1.6653669      18150.925    
     58000   0.93827246     0.0023323615  -0.0027346017   20.317224      18.923889      1.3933346     -1.5886595      18171.548    
     59000   1.0552065      0.0023323615  -0.0012550946   20.756519      19.189537      1.5669816     -1.3961025      18186.113    
     60000   0.88055821     0.0023323615   9.2180726e-05  20.199635      18.892006      1.3076289     -1.6104214      18127.556    
     61000   0.97836429     0.0023323615   0.0022218196   20.114293      18.661422      1.452871      -1.771842       18204.405    
     62000   0.92708057     0.0023323615  -0.0011544104   20.218652      18.841937      1.3767147     -1.6667463      18175.949    
     63000   1.094372       0.0023323615  -0.0013660238   20.593101      18.967958      1.6251425     -1.513748       18264.219    
     64000   0.95492909     0.0023323615   0.001154226    20.385981      18.967911      1.4180697     -1.5562507      18292.496    
     65000   1.0118829      0.0023323615  -0.0035820561   20.310862      18.808216      1.5026461     -1.7396875      18257.25     
     66000   1.1395329      0.0023323615   0.0014177963   20.736137      19.043931      1.6922063     -1.4773162      18308.545    
     67000   0.8480445      0.0023323615   0.0017389754   20.463579      19.204233      1.2593461     -1.2346594      18308.66     
     68000   1.0222253      0.0023323615   0.00015695875  20.409948      18.891943      1.5180045     -1.5825319      18242.484    
     69000   0.99883947     0.0023323615  -0.0023763609   20.482086      18.998809      1.4832766     -1.4115345      18258.94     
     70000   1.0024716      0.0023323615   0.00023800162  20.473689      18.985019      1.4886704     -1.4508917      18310.083    
     71000   1.0776119      0.0023323615  -0.0009291564   20.681559      19.081305      1.6002537     -1.482727       18424.077    
     72000   1.0287262      0.0023323615  -0.0012853815   20.457221      18.929562      1.5276584     -1.6521575      18412.558    
     73000   1.0372446      0.0023323615  -0.00063165654  20.562637      19.022329      1.5403082     -1.5378685      18387.865    
     74000   1.0501908      0.0023323615  -0.0029355966   20.433399      18.873866      1.5595334     -1.5680065      18326.075    
     75000   1.1040796      0.0023323615  -0.0011257529   20.35323       18.713672      1.6395581     -1.7846183      18190.332    
     76000   1.0136656      0.0023323615   0.00070800831  20.260903      18.75561       1.5052934     -1.7436779      18079.319    
     77000   0.92050509     0.0023323615   0.00073392144  20.401513      19.034563      1.3669501     -1.4555863      18133.698    
     78000   0.82850895     0.0023323615  -0.0024131309   20.121532      18.891196      1.2303358     -1.6221828      18182.101    
     79000   0.93132768     0.0023323615   0.00077940977  20.27967       18.896648      1.3830216     -1.6693338      18094.185    
     80000   0.99762943     0.0023323615   0.0006701132   20.498069      19.016589      1.4814797     -1.5523145      18181.468    
     81000   1.0001733      0.0023323615   0.0018313516   20.242274      18.757017      1.4852574     -1.812105       18068.299    
     82000   0.97469636     0.0023323615   0.0010333943   20.393487      18.946063      1.4474241     -1.5183561      18203.887    
     83000   1.0711517      0.0023323615   0.0005755672   20.5946        19.00394       1.5906603     -1.4899118      18306.88     
     84000   1.0458024      0.0023323615   0.0018257018   20.803574      19.250558      1.5530166     -1.2619228      18263.667    
     85000   0.94097987     0.0023323615   0.0013223182   20.346206      18.948851      1.3973551     -1.5062931      18297.483    
     86000   0.98968371     0.0023323615   0.00097814719  20.752268      19.282588      1.4696803     -1.2562068      18423.441    
     87000   1.0527479      0.0023323615  -0.00072567731  20.511662      18.948332      1.5633307     -1.5835977      18357.843    
     88000   0.92408045     0.0023323615  -0.0024614335   20.533921      19.161661      1.3722595     -1.4996356      18195.614    
     89000   1.1360398      0.0023323615   5.6716086e-05  20.927887      19.240868      1.6870191     -1.2206558      18285.978    
     90000   1.06137        0.0023323615  -0.0012417429   20.542544      18.966409      1.5761345     -1.4827393      18391.402    
     91000   1.0000959      0.0023323615  -0.00045994243  20.209196      18.724053      1.4851424     -1.7275737      10087.277    
     92000   0.88815846     0.0023323615  -0.00036658104  20.32691       19.007995      1.3189153     -1.4096836      18156.105    
     93000   1.0047977      0.0023323615   0.0025770463   20.340753      18.848629      1.4921246     -1.613227       18397.992    
     94000   0.9624013      0.0023323615   0.00029130456  20.093915      18.664749      1.4291659     -1.7961721      18364.034    
     95000   0.91819867     0.0023323615  -0.00066360027  20.425548      19.062022      1.363525      -1.5154393      18299.224    
     96000   1.0876984      0.0023323615  -0.0011256885   20.755897      19.140665      1.6152322     -1.5126487      18065.457    
     97000   1.0401138      0.0023323615   0.0026971145   20.360947      18.816378      1.5445689     -1.570988       18113.088    
     98000   0.97054466     0.0023323615  -0.0021036373   20.466641      19.025382      1.4412588     -1.49899        18237.771    
     99000   1.2253565      0.0023323615  -0.00047189472  20.832171      19.012517      1.8196543     -1.4360432      18249.645    
    100000   0.92947983     0.0023323615   0.003216872    20.734049      19.353771      1.3802775     -1.3091375      18233.16     
    101000   0.95923853     0.0023323615  -0.0022013977   20.55788       19.133411      1.4244692     -1.4560083      18172.815    
    102000   0.97923747     0.0023323615   0.0016065492   20.525621      19.071454      1.4541676     -1.3897203      18245.342    
    103000   1.0365758      0.0023323615   0.0011293289   20.61035       19.071035      1.5393151     -1.4570809      18137.659    
    104000   1.1207164      0.0023323615   0.00080867554  20.553816      18.889552      1.6642638     -1.6079594      17994.762    
    105000   1.0882406      0.0023323615   0.0035792083   20.738361      19.122324      1.6160373     -1.3571704      18116.583    
    106000   0.93376272     0.0023323615  -0.0036130116   20.22228       18.835642      1.3866376     -1.7700987      18012.75     
    107000   0.89240955     0.0023323615  -0.0017051404   20.195849      18.870621      1.3252282     -1.7206297      18087.807    
    108000   0.90758031     0.0023323615   0.0033329555   20.091327      18.74357       1.3477568     -1.7148258      18199.28     
    109000   0.91961191     0.0023323615   0.00066617172  20.391778      19.026154      1.3656237     -1.521888       18143.798    
    110000   1.0038284      0.0023323615   0.00049787844  20.154026      18.663341      1.4906851     -1.775459       18126.894    
    111000   1.039765       0.0023323615   0.0016331897   20.567538      19.023487      1.5440511     -1.609072       17944.537    
    112000   1.0569677      0.0023323615   0.00063081756  20.55931       18.989713      1.5695971     -1.7058681      18148.033    
    113000   0.93181352     0.0023323615   0.0026243253   20.208094      18.824351      1.3837431     -1.7023533      18192.192    
    114000   1.062238       0.0023323615  -0.0012566706   20.365723      18.7883        1.5774234     -1.9108165      18080.415    
    115000   0.99254922     0.0023323615   0.0007571268   20.109316      18.63538       1.4739356     -1.7806698      18312.519    
    116000   0.9826492      0.0023323615   0.003409088    20.418843      18.959609      1.4592341     -1.5770757      18283.898    
    117000   1.1347757      0.0023323615  -0.0015193234   20.545644      18.860502      1.685142      -1.6231241      18359.758    
    118000   1.1267228      0.0023323615   0.00078906426  20.850868      19.177684      1.6731834     -1.342393       18441.533    
    119000   0.91849668     0.0023323615   0.0043061065   20.438011      19.074043      1.3639676     -1.5060699      18284.082    
    120000   0.93948124     0.0023323615  -0.0021838939   20.54758       19.15245       1.3951296     -1.3971621      18227.081    
    121000   1.1107116      0.0023323615  -0.0037926761   20.512488      18.863082      1.6494067     -1.6582612      18370.578    
    122000   1.044186       0.0023323615  -0.003717038    20.601922      19.051306      1.5506162     -1.5547401      18275.532    
    123000   0.95856891     0.0023323615  -0.0028839914   20.626661      19.203186      1.4234748     -1.4030863      18328.902    
    124000   0.92451639     0.0023323615   0.0025934563   20.30008       18.927173      1.3729068     -1.5080927      18254.759    
    125000   0.98976888     0.0023323615   0.0016466231   20.284141      18.814334      1.4698068     -1.7524043      18208.473    
    126000   0.95733075     0.0023323615  -0.0010561658   20.50561       19.083974      1.4216362     -1.4930134      18218.673    
    127000   1.0140941      0.0023323615  -0.0034775254   20.574414      19.068484      1.5059298     -1.4989135      18169.163    
    128000   1.1422946      0.0023323615   0.007641947    20.724608      19.0283        1.6963075     -1.5026924      18234.986    
    129000   1.0447443      0.0023323615   0.0012549366   20.411887      18.860442      1.5514453     -1.622989       18048.901    
    130000   0.94008368     0.0023323615   0.0024644491   20.213911      18.817886      1.3960243     -1.7084486      18047.805    
    131000   1.0127802      0.0023323615   0.0018247374   20.372264      18.868285      1.5039787     -1.6384954      18257.985    
    132000   0.87702681     0.0023323615   0.0022768723   20.323115      19.02073       1.3023848     -1.5501663      18236.618    
    133000   1.0822719      0.0023323615  -0.0021270731   20.40702       18.799847      1.6071738     -1.6118277      18272.046    
    134000   1.0355992      0.0023323615  -0.0021233267   20.421001      18.883136      1.5378649     -1.6244135      18207.234    
    135000   0.99958664     0.0023323615   0.00089346897  20.503786      19.0194        1.4843862     -1.5471543      18433.9      
    136000   0.87261747     0.0023323615   0.0012204616   20.20806       18.912223      1.2958369     -1.6384373      18561.663    
    137000   1.0709349      0.0023323615  -0.002804644    20.535977      18.945639      1.5903383     -1.5373336      18340.262    
    138000   1.0754599      0.0023323615  -0.0033776821   20.577738      18.98068       1.597058      -1.4809244      18430.486    
    139000   1.030561       0.0023323615   0.0010950111   20.57536       19.044977      1.5303831     -1.3962938      18352.375    
    140000   1.0713973      0.0023323615   0.0030110714   20.76043       19.169405      1.591025      -1.3145986      18301.297    
    141000   0.95644258     0.0023323615   0.00079401384  20.412284      18.991967      1.4203172     -1.4874585      18456.083    
    142000   1.0034163      0.0023323615  -0.0062349096   20.591185      19.101112      1.4900732     -1.476625       18334.717    
    143000   1.0366238      0.0023323615  -0.0028406084   20.49655       18.957163      1.5393863     -1.4775324      18599.105    
    144000   0.96661506     0.0023323615   0.00068840011  20.37957       18.944146      1.4354234     -1.5426562      18457.113    
    145000   0.99059231     0.0023323615   0.0071762957   20.462759      18.991729      1.4710296     -1.5299343      18170.139    
    146000   0.85314605     0.0023323615  -0.0041483815   20.057986      18.791064      1.2669219     -1.8039903      18103.269    
    147000   1.021459       0.0023323615  -0.0005117116   20.240137      18.723271      1.5168666     -1.7255975      18190.703    
    148000   0.97580776     0.0023323615   0.0044188129   20.258391      18.809317      1.4490745     -1.6095707      18240.228    
    149000   0.9592204      0.0023323615  -0.0016493641   20.450578      19.026135      1.4244423     -1.5570828      18321.386    
    150000   1.1685876      0.0023323615   6.2995697e-05  20.699504      18.964152      1.7353526     -1.5654689      18385.758    
    151000   1.1210542      0.0023323615  -0.0014702045   20.508306      18.84354       1.6647655     -1.6345708      18326.022    
    152000   1.0912188      0.0023323615  -6.8583024e-05  20.538673      18.918214      1.6204599     -1.5884045      18295.48     
    153000   1.1394035      0.0023323615   0.0052894264   20.914776      19.222761      1.6920142     -1.351693       18344.769    
    154000   0.9343637      0.0023323615  -0.0023977094   20.589008      19.201478      1.3875301     -1.3421593      18359.086    
    155000   1.1069483      0.0023323615  -0.0019064535   20.799078      19.15526       1.6438183     -1.2528613      18493.517    
    156000   1.1195431      0.0023323615   0.0032718403   20.725831      19.06331       1.6625215     -1.4700168      18448.455    
    157000   0.95504745     0.0023323615   0.00062671124  20.422312      19.004066      1.4182455     -1.404013       18448.527    
    158000   1.0080444      0.0023323615  -0.0001553089   20.554305      19.057359      1.496946      -1.5234378      18377.468    
    159000   1.2578407      0.0023323615  -0.0013596839   20.762778      18.894884      1.8678935     -1.577201       18268.193    
    160000   1.0619746      0.0023323615   0.0050984282   20.318804      18.741772      1.5770323     -1.7259353      18341.243    
    161000   1.0654676      0.0023323615   0.00018898244  20.7556        19.173381      1.5822194     -1.4133506      18261.502    
    162000   0.92391976     0.0023323615   0.0018684127   20.346865      18.974844      1.3720208     -1.4916899      18260.366    
    163000   0.88725218     0.0023323615   0.0037289474   20.316903      18.999333      1.3175695     -1.5407723      18265.422    
    164000   0.8579701      0.0023323615  -0.0020229972   20.266644      18.992558      1.2740856     -1.4830015      18345.052    
    165000   0.99899446     0.0023323615  -0.00060651414  20.571191      19.087684      1.4835068     -1.3399825      18432.872    
    166000   1.0251022      0.0023323615   0.0010706817   20.694392      19.172115      1.5222768     -1.4567708      18387.783    
    167000   0.90326844     0.0023323615  -0.0026198389   20.382002      19.040648      1.3413536     -1.4269164      18342.261    
    168000   0.98462261     0.0023323615   5.4398536e-05  20.212576      18.750411      1.4621646     -1.6921452      18378.012    
    169000   1.0505127      0.0023323615  -0.00050168721  20.457786      18.897774      1.5600113     -1.5548253      18065.163    
    170000   0.99038991     0.0023323615   0.0023550682   20.907005      19.436276      1.470729      -1.1633426      18239.964    
    171000   0.96522601     0.0023323615   0.0013261672   20.331792      18.898431      1.4333606     -1.6644678      18269.591    
    172000   0.9147215      0.0023323615   0.0022512804   20.298974      18.940613      1.3583614     -1.5364745      18327.95     
    173000   1.0050837      0.0023323615   0.0025726216   20.250897      18.758348      1.4925493     -1.6617913      18339.45     
    174000   1.145607       0.0023323615  -0.0018848602   20.710802      19.009576      1.7012264     -1.4843633      18250.116    
    175000   1.0433299      0.0023323615  -0.0024424012   20.557841      19.008496      1.5493449     -1.5422639      18247.957    
    176000   1.1169364      0.0023323615  -0.0030509793   20.640958      18.982308      1.6586506     -1.4043633      18233.66     
    177000   1.1660087      0.0023323615   2.5295274e-05  20.614328      18.882805      1.731523      -1.5754574      18227.726    
    178000   0.99953221     0.0023323615  -0.0050853442   20.251081      18.766776      1.4843053     -1.7681162      18167.797    
    179000   0.98696982     0.0023323615   0.0028213765   20.300197      18.834547      1.4656502     -1.6285975      18149.429    
    180000   1.0890216      0.0023323615   0.00023643105  20.427477      18.810279      1.6171971     -1.7478683      18208.706    
    181000   0.96571116     0.0023323615  -0.0026367262   20.488584      19.054503      1.4340811     -1.5771305      18228.066    
    182000   1.0753371      0.0023323615   0.0029426169   20.600042      19.003166      1.5968757     -1.5294554      18329.145    
    183000   1.0552782      0.0023323615  -0.0016004365   20.532829      18.965741      1.5670882     -1.6331648      18358.562    
    184000   1.1338294      0.0023323615   0.0061142841   20.738615      19.054879      1.6837367     -1.5838444      18282.716    
    185000   0.9753828      0.0023323615   0.00039379226  20.143772      18.695329      1.4484435     -1.8090498      18125.656    
    186000   1.1116121      0.0023323615   0.002307252    20.633989      18.983245      1.6507439     -1.4360246      18206.803    
    187000   1.1456287      0.0023323615  -0.0024350746   21.106164      19.404905      1.7012587     -1.2099779      18177.64     
    188000   1.0108107      0.0023323615  -0.0013038378   20.533627      19.032573      1.5010539     -1.4665648      18334.03     
    189000   1.0497077      0.0023323615   0.0004488275   20.609177      19.050361      1.5588159     -1.3819939      18305.442    
    190000   0.97369941     0.0023323615   0.00059813113  20.109721      18.663777      1.4459436     -1.7208343      18225.3      
    191000   0.95733767     0.0023323615   0.0014549043   20.500463      19.078816      1.4216464     -1.5025379      18088.318    
    192000   0.99609099     0.0023323615  -5.2413998e-05  20.108325      18.62913       1.4791951     -1.9132254      18033.04     
    193000   0.91512855     0.0023323615  -0.0059175175   20.279973      18.921007      1.3589659     -1.7010044      18000.85     
    194000   1.1030633      0.0023323615   0.0045087354   20.619201      18.981152      1.638049      -1.498787       18118.027    
    195000   0.84323908     0.0023323615   0.0017340213   19.970635      18.718425      1.25221       -1.7452244      18005.302    
    196000   1.1808577      0.0023323615   0.0032910252   20.413746      18.660172      1.7535737     -1.8821686      18110.344    
    197000   1.0328724      0.0023323615   0.00041000847  20.44404       18.910224      1.5338155     -1.6766966      18114.913    
    198000   0.98604261     0.0023323615   0.0067690605   20.503914      19.039641      1.4642733     -1.5227191      18160.819    
    199000   0.92426228     0.0023323615  -0.001421218    20.371325      18.998795      1.3725295     -1.5559527      18142.703    
    200000   0.89754317     0.0023323615   0.0012288853   20.290734      18.957883      1.3328516     -1.5010258      18239.851    
    201000   1.000252       0.0023323615  -0.0039436189   20.221779      18.736405      1.4853742     -1.68489        18233.97     
    202000   0.87187154     0.0023323615  -0.0033592188   20.352296      19.057567      1.2947292     -1.3964718      18248.645    
    203000   0.95333275     0.0023323615   0.0021601403   20.455099      19.0394        1.4156991     -1.5908242      18233.697    
    204000   0.9190833      0.0023323615   0.0024998964   20.023391      18.658552      1.3648387     -1.6835397      18148.459    
    205000   0.98288728     0.0023323615   0.0026027248   20.502188      19.0426        1.4595876     -1.3957156      18240.861    
    206000   0.95538987     0.0023323615  -0.0029451541   20.472582      19.053828      1.418754      -1.4675177      18035.211    
    207000   0.93771518     0.0023323615   0.0019585795   20.211801      18.819294      1.392507      -1.8426748      18088.043    
    208000   1.0547945      0.0023323615  -0.0024190884   20.169266      18.602896      1.5663698     -1.9761923      18147.133    
    209000   1.0010065      0.0023323615   0.0027813003   20.297124      18.810629      1.4864946     -1.6636738      18153.391    
    210000   0.97123907     0.0023323615  -0.002314186    20.757065      19.314775      1.44229       -1.2366137      18268.123    
    211000   1.1338136      0.0023323615   0.00097828652  20.578089      18.894376      1.6837131     -1.5143574      18190.773    
    212000   1.0114418      0.0023323615   0.0038922745   20.592172      19.090181      1.501991      -1.3970297      18213.766    
    213000   1.0632963      0.0023323615  -0.0026244306   20.740578      19.161583      1.578995      -1.3867907      18118.323    
    214000   0.84791732     0.0023323615  -0.0023399841   20.216341      18.957184      1.2591572     -1.6464531      18326.388    
    215000   0.80077571     0.0023323615   0.00034790223  20.13483       18.945678      1.1891519     -1.5465061      18235.279    
    216000   1.0708253      0.0023323615  -3.5443498e-07  20.634082      19.043906      1.5901756     -1.6100726      18220.303    
    217000   1.0939551      0.0023323615  -0.0016029497   20.785796      19.161272      1.6245233     -1.4713999      18160.231    
    218000   1.0377545      0.0023323615   0.0032297808   20.414248      18.873183      1.5410655     -1.7106501      18166.977    
    219000   0.90376565     0.0023323615  -0.0016563957   20.299762      18.95767       1.342092      -1.5636796      18098.516    
    220000   1.0486377      0.0023323615  -0.0048714418   20.598279      19.041052      1.5572271     -1.5716075      18243.355    
    221000   0.95690804     0.0023323615   0.00032370841  20.403662      18.982654      1.4210084     -1.523354       18190.229    
    222000   1.036392       0.0023323615  -0.0017042258   20.330963      18.791921      1.5390422     -1.6956319      18100.494    
    223000   1.0335738      0.0023323615  -0.0015375477   20.447775      18.912918      1.5348571     -1.4977402      18161.718    
    224000   0.88396351     0.0023323615   0.0002030064   20.204491      18.891805      1.3126858     -1.5741505      18207.739    
    225000   0.89194441     0.0023323615  -0.0040559633   20.336331      19.011794      1.3245374     -1.6789281      18019.514    
    226000   1.018241       0.0023323615  -0.001726525    20.237512      18.725424      1.5120879     -1.7889065      18085.752    
    227000   0.91886664     0.0023323615   0.0010434974   20.290916      18.926399      1.364517      -1.6453637      18048.719    
    228000   1.1899133      0.0023323615   0.0020191077   20.68789       18.920869      1.7670212     -1.5253867      18200.286    
    229000   0.98586503     0.0023323615   0.00076966452  20.386671      18.922662      1.4640096     -1.61794        18364.987    
    230000   1.0814865      0.0023323615   0.0025078593   20.530694      18.924687      1.6060074     -1.6624476      18088.273    
    231000   0.91794776     0.0023323615   0.00095284151  20.27128       18.908128      1.3631524     -1.7501803      18040.257    
    232000   1.0424646      0.0023323615  -0.0026659236   20.48866       18.9406        1.5480599     -1.682564       18015.107    
    233000   1.1216743      0.0023323615   0.0016154946   20.448443      18.782757      1.6656863     -1.8145196      18071.151    
    234000   1.1247585      0.0023323615  -0.00060848409  20.757801      19.087535      1.6702663     -1.4713119      18127.513    
    235000   1.0625054      0.0023323615  -0.0012941588   20.514855      18.937035      1.5778204     -1.56817        18066.86     
    236000   1.0694078      0.0023323615  -0.0022191274   20.378283      18.790213      1.5880706     -1.6370597      18264.617    
    237000   1.1161589      0.0023323615  -0.00046903199  20.670697      19.013201      1.657496      -1.4744896      18139.396    
    238000   0.9019819      0.0023323615   0.0035033883   20.249199      18.909756      1.3394431     -1.6586174      18129.775    
    239000   0.98783367     0.0023323615   0.00074771481  20.375669      18.908736      1.466933      -1.5987087      18275.669    
    240000   1.1453301      0.0023323615  -0.002940403    20.495984      18.795169      1.7008153     -1.6886584      18363.125    
    241000   0.93921136     0.0023323615  -0.0017173386   20.184563      18.789834      1.3947289     -1.6932718      18294.045    
    242000   1.0161899      0.0023323615   0.0028037991   20.232901      18.723859      1.509042      -1.6906081      18238.018    
    243000   1.0376028      0.0023323615   0.0015424386   20.627039      19.086199      1.5408402     -1.4590565      18414.124    
    244000   0.93525606     0.0023323615  -9.6558011e-05  20.270206      18.88135       1.3888552     -1.5621767      18366.842    
    245000   1.0194493      0.0023323615  -0.0011510664   20.730353      19.216471      1.5138822     -1.4015528      18261.843    
    246000   1.0077003      0.0023323615  -0.0021384144   20.664509      19.168074      1.4964349     -1.3439168      18515.662    
    247000   1.1088272      0.0023323615  -0.0042905519   20.688108      19.0415        1.6466083     -1.4809059      18309.445    
    248000   0.97153004     0.0023323615  -0.00015593377  20.653107      19.210385      1.4427221     -1.3101871      18235.652    
    249000   0.97278042     0.0023323615   0.00043376867  20.208046      18.763467      1.4445789     -1.7591987      18053.733    
    250000   1.1012795      0.0023323615   0.002464666    20.676144      19.040744      1.6354001     -1.4487057      18234.739    
    251000   1.1795759      0.0023323615  -0.00024001128  20.851044      19.099374      1.7516702     -1.34004        18265.927    
    252000   0.96093784     0.0023323615  -0.0026135905   20.530274      19.103281      1.4269927     -1.5218282      18322.042    
    253000   1.1390813      0.0023323615  -0.00025722073  20.56838       18.876844      1.6915357     -1.6079871      18218.321    
    254000   0.86543672     0.0023323615  -0.00021694194  20.122709      18.837535      1.2851735     -1.6405037      18175.247    
    255000   1.1231632      0.0023323615   0.0010417113   20.412123      18.744226      1.6678974     -1.6792832      18082.708    
    256000   0.97873823     0.0023323615   0.0061792739   20.155024      18.701598      1.4534263     -1.7662472      17991.298    
    257000   0.79495767     0.0023323615  -0.0010318887   20.18706       19.006548      1.1805121     -1.5187947      17953.087    
    258000   1.0131614      0.0023323615   0.0019202124   20.290475      18.78593       1.5045447     -1.8241218      17957.466    
    259000   1.0289104      0.0023323615  -0.00064458277  20.499562      18.97163       1.5279319     -1.6434079      17973.373    
    260000   0.81726851     0.0023323615   0.0029921524   20.183816      18.970173      1.2136437     -1.6183402      18031.138    
    261000   0.88329467     0.0023323615  -0.0041667877   20.009734      18.698042      1.3116926     -1.8708453      18081.247    
    262000   0.98874773     0.0023323615   0.0016923051   20.526695      19.058405      1.4682904     -1.4397004      18142.762    
    263000   1.0383744      0.0023323615  -0.00070877651  20.46901       18.927024      1.541986      -1.5178908      18124.636    
    264000   0.99480835     0.0023323615  -0.0035477767   20.307744      18.830453      1.4772904     -1.6127701      18090.453    
    265000   1.0972577      0.0023323615  -0.0014015655   20.509871      18.880443      1.6294277     -1.693509       18151.641    
    266000   1.0183082      0.0023323615  -0.0026834984   20.758811      19.246623      1.5121876     -1.4345435      18104.247    
    267000   1.0397567      0.0023323615  -0.0022498368   20.669474      19.125436      1.5440387     -1.4761261      18121.734    
    268000   1.0892694      0.0023323615  -0.00044733001  20.272347      18.654782      1.617565      -1.9048449      18252.369    
    269000   0.93805126     0.0023323615  -0.003248229    20.156154      18.763148      1.3930061     -1.6716         18085.945    
    270000   1.1019336      0.0023323615   0.0039038795   20.350079      18.713707      1.6363714     -1.7350363      18013.283    
    271000   0.93397912     0.0023323615  -0.0033555698   20.247133      18.860174      1.386959      -1.5467612      18047.873    
    272000   0.95232964     0.0023323615  -0.0057288166   20.39252       18.97831       1.4142095     -1.5032421      18011.947    
    273000   0.97910506     0.0023323615   0.0042538124   20.39602       18.942049      1.453971      -1.4515257      18223.4      
    274000   0.91446325     0.0023323615   0.0026536055   20.411502      19.053524      1.3579779     -1.4488223      18313.432    
    275000   1.0429592      0.0023323615  -0.00039389778  20.449153      18.900358      1.5487944     -1.6851781      18126.921    
    276000   0.94530109     0.0023323615  -0.00019222197  20.234903      18.831131      1.4037721     -1.6482766      18151.38     
    277000   0.90127601     0.0023323615  -8.9233611e-05  20.106994      18.768599      1.3383949     -1.6154366      18269.447    
    278000   0.95161299     0.0023323615   0.0039014041   20.495203      19.082058      1.4131453     -1.5318327      18202.015    
    279000   0.87671499     0.0023323615   0.0025989191   20.26364       18.961718      1.3019218     -1.6046083      18156.207    
    280000   0.97168699     0.0023323615  -0.00086441317  20.276256      18.833301      1.4429552     -1.644144       18240.354    
    281000   0.92394861     0.0023323615  -0.0036973367   20.196094      18.82403       1.3720637     -1.5848512      18471.449    
    282000   0.93906763     0.0023323615  -0.0010185128   20.454686      19.060171      1.3945154     -1.4084345      18588.782    
    283000   0.91640333     0.0023323615  -0.00057190398  20.425073      19.064214      1.3608589     -1.4645953      18579.534    
    284000   0.95248956     0.0023323615  -0.0065896786   20.222832      18.808385      1.414447      -1.7288663      18305.187    
    285000   0.98498733     0.0023323615  -0.00052660989  20.411774      18.949068      1.4627062     -1.4839229      18216.572    
    286000   0.9307818      0.0023323615  -0.00013957619  20.590982      19.208771      1.382211      -1.2958066      18125.683    
    287000   1.0225302      0.0023323615   0.001728493    20.593895      19.075437      1.5184573     -1.464315       18094.604    
    288000   1.1347599      0.0023323615   0.0024101691   20.495849      18.810731      1.6851184     -1.6945512      18227.909    
    289000   0.79774942     0.0023323615  -0.0021245426   20.298906      19.114248      1.1846579     -1.340218       18417.668    
    290000   1.0544791      0.0023323615   0.003489909    20.61013       19.044229      1.5659014     -1.5204431      18264.974    
    291000   1.0588801      0.0023323615   0.00089867783  20.353827      18.78139       1.572437      -1.6891592      18422.59     
    292000   0.98843445     0.0023323615  -0.00055518925  20.225211      18.757386      1.4678252     -1.7086899      18293.811    
    293000   1.000643       0.0023323615  -0.00080314963  20.598046      19.112091      1.4859548     -1.4542811      18299.677    
    294000   0.99387945     0.0023323615  -0.0019621971   20.523209      19.047298      1.475911      -1.4221601      18174.473    
    295000   1.03369        0.0023323615   0.0015239963   20.523346      18.988317      1.5350297     -1.6156534      18219.085    
    296000   1.1577982      0.0023323615  -0.0021161793   20.749576      19.030246      1.7193304     -1.4306541      18176.889    
    297000   1.067889       0.0023323615   0.0012898381   20.587181      19.001366      1.5858151     -1.3986719      18152.978    
    298000   1.0984495      0.0023323615  -0.0018238544   20.580808      18.949611      1.6311976     -1.5652128      18216.389    
    299000   1.0969989      0.0023323615   0.004804988    20.417402      18.788358      1.6290434     -1.6611681      18036.768    
    300000   0.92208756     0.0023323615   0.00012875203  20.03872       18.66942       1.3693        -1.7774611      18054.693    
    301000   0.96102981     0.0023323615   0.0021028091   20.195187      18.768058      1.4271293     -1.7064817      18026.829    
    302000   0.9714954      0.0023323615  -0.0061629448   20.386332      18.943661      1.4426707     -1.6203636      18007.485    
    303000   1.0293397      0.0023323615  -0.00070379898  20.799982      19.271413      1.5285695     -1.2513784      18150.086    
    304000   1.0883535      0.0023323615   0.0071252817   20.559374      18.943169      1.616205      -1.5763187      18298.117    
    305000   1.0145848      0.0023323615   0.0040116985   20.258622      18.751963      1.5066584     -1.7323284      18173.718    
    306000   0.99487087     0.0023323615  -0.0012082641   20.240854      18.76347       1.4773832     -1.7352531      18112.023    
    307000   0.89307437     0.0023323615   0.0051024573   20.254849      18.928634      1.3262154     -1.572115       18094.674    
    308000   0.94643557     0.0023323615  -0.0010320529   20.373527      18.96807       1.4054568     -1.5753408      18315.506    
    309000   1.0317075      0.0023323615  -0.0033249919   20.285261      18.753175      1.5320857     -1.9032914      18251.661    
    310000   0.94475637     0.0023323615   0.00082336533  20.209545      18.806582      1.4029632     -1.5889395      18238.661    
    311000   1.0239957      0.0023323615  -0.00044870312  20.62318       19.102547      1.5206335     -1.417895       18092.594    
    312000   0.98939486     0.0023323615  -0.00034829211  20.494643      19.025392      1.4692514     -1.4807003      18217.672    
    313000   0.99923157     0.0023323615   0.00021556655  20.319439      18.83558       1.4838589     -1.6974676      18320.542    
    314000   0.95455466     0.0023323615  -0.0034975099   20.593209      19.175696      1.4175137     -1.4163004      18281.316    
    315000   1.0204491      0.0023323615  -0.0047973289   20.866375      19.351008      1.5153669     -1.4400014      18207.653    
    316000   1.0287816      0.0023323615   0.002619604    20.698139      19.170398      1.5277407     -1.4125963      18181.564    
    317000   0.91594446     0.0023323615  -4.9265928e-05  20.552692      19.192514      1.3601775     -1.4407775      18100.308    
    318000   1.0424008      0.0023323615   0.00025889477  20.424046      18.876081      1.5479652     -1.6501791      18125.864    
    319000   0.96091486     0.0023323615  -0.0038895575   20.179868      18.75291       1.4269586     -1.8269317      18047.38     
    320000   1.0320427      0.0023323615   0.0049780811   20.539468      19.006885      1.5325834     -1.6147098      18046.845    
    321000   1.0700027      0.0023323615   0.0005299217   20.303138      18.714184      1.5889539     -1.7256628      18020.187    
    322000   0.98455618     0.0023323615  -0.00020378755  20.354486      18.89242       1.4620659     -1.5537892      18048.957    
    323000   1.0473012      0.0023323615  -0.0041053244   20.537157      18.981915      1.5552422     -1.4551098      18142.363    
    324000   1.0363643      0.0023323615  -0.0026777474   20.263466      18.724465      1.539001      -1.7343506      18130.806    
    325000   0.99959971     0.0023323615   0.0026851533   20.646584      19.162178      1.4844056     -1.342819       18255.887    
    326000   0.95749164     0.0023323615  -0.00097994714  20.758179      19.336304      1.4218751     -1.2304404      18182.76     
    327000   0.94478169     0.0023323615   0.0033538086   20.440752      19.037751      1.4030008     -1.4931765      18240.697    
    328000   0.94147468     0.0023323615   0.0014700759   20.339591      18.941501      1.3980899     -1.5999834      18197.95     
    329000   1.0212857      0.0023323615  -0.0031638168   20.296527      18.779918      1.5166093     -1.7717456      18301.243    
    330000   1.018707       0.0023323615  -0.0020661255   20.653847      19.141067      1.5127799     -1.5094978      18254.432    
    331000   0.98594054     0.0023323615  -0.0040579366   20.329248      18.865127      1.4641217     -1.7380573      18126.756    
    332000   1.114067       0.0023323615   0.0021556623   20.745346      19.090956      1.6543894     -1.5151409      18228.212    
    333000   1.0365458      0.0023323615  -0.00087761594  20.525958      18.986687      1.5392706     -1.5355645      18168.359    
    334000   1.2061679      0.0023323615   0.0032459373   20.712086      18.920926      1.7911593     -1.5821967      18130.668    
    335000   1.0708353      0.0023323615   0.003334901    20.428273      18.838083      1.5901905     -1.6615116      17996.878    
    336000   0.95205657     0.0023323615  -0.0014301977   20.41844       19.004636      1.413804      -1.4886858      18242.585    
    337000   0.7982342      0.0023323615  -0.0050756467   20.366565      19.181187      1.1853778     -1.5137627      18274.424    
    338000   1.0118936      0.0023323615  -0.00022229822  20.356085      18.853423      1.5026619     -1.6699328      18228.605    
    339000   1.0112145      0.0023323615  -0.0010290062   20.397132      18.895479      1.5016536     -1.6130863      18170.827    
    340000   1.0138551      0.0023323615  -0.00046590985  20.525333      19.019758      1.5055748     -1.4832464      18075.082    
    341000   1.0226211      0.0023323615   0.0013623071   20.450945      18.932353      1.5185923     -1.6574741      17973.075    
    342000   0.92702791     0.0023323615  -0.0012734549   20.426448      19.049812      1.3766364     -1.6085985      18099.415    
    343000   1.0253916      0.0023323615  -0.00052500815  20.480892      18.958185      1.5227065     -1.6731237      18112.871    
    344000   0.86019861     0.0023323615  -0.0013004684   20.203849      18.926455      1.2773949     -1.5332162      18213.218    
    345000   1.028786       0.0023323615   0.0018505755   20.429862      18.902115      1.5277471     -1.5837417      18348.519    
    346000   1.1167382      0.0023323615  -0.00044796596  20.676354      19.017998      1.6583562     -1.4664295      18347.146    
    347000   1.0241885      0.0023323615  -0.0022380322   20.831871      19.310951      1.52092       -1.3194741      18519.788    
    348000   1.0414969      0.0023323615   0.0032727386   20.599097      19.052474      1.5466229     -1.5121353      18387.19     
    349000   0.93065904     0.0023323615   0.0039403385   20.184607      18.802578      1.3820287     -1.6336259      18090.718    
    350000   0.95431756     0.0023323615   0.0025937511   20.092442      18.67528       1.4171616     -1.7814741      18147.252    
    351000   0.8642337      0.0023323615   0.0020209079   20.392683      19.109296      1.2833871     -1.4134534      18107.256    
    352000   1.1187838      0.0023323615  -0.0012709151   20.791474      19.13008       1.661394      -1.5417132      18016.606    
    353000   0.99270071     0.0023323615  -0.0038555366   20.28794       18.813779      1.4741606     -1.758622       18092.883    
    354000   1.1065412      0.0023323615  -0.0001712231   20.624624      18.98141       1.6432137     -1.6134966      18296.731    
    355000   0.89635194     0.0023323615  -0.0012802103   20.568776      19.237694      1.3310826     -1.3185945      18240.941    
    356000   1.0817508      0.0023323615   0.0013904567   20.780259      19.173859      1.6064        -1.3517884      18273.391    
    357000   1.0097939      0.0023323615   0.00070231452  20.672226      19.172682      1.4995439     -1.3991839      18364.129    
    358000   1.1010402      0.0023323615  -0.0018860616   20.639453      19.004408      1.6350448     -1.5307044      18773.086    
    359000   1.1079421      0.0023323615   0.00041429182  20.733455      19.088161      1.6452941     -1.3190175      19079.707    
    360000   0.92514791     0.0023323615   0.00063826207  20.288048      18.914204      1.3738446     -1.443646       18806.736    
    361000   0.97628377     0.0023323615   0.0025473047   20.497366      19.047585      1.4497814     -1.5341055      18377.461    
    362000   0.98648726     0.0023323615  -0.00030035574  20.490976      19.026042      1.4649336     -1.4152957      18072.657    
    363000   0.93834595     0.0023323615   0.0014678343   20.406828      19.013384      1.3934437     -1.4530687      18251.671    
    364000   1.0171716      0.0023323615  -0.0010436764   20.617308      19.106809      1.5104999     -1.4529758      18173.874    
    365000   1.0416599      0.0023323615   0.0012466322   20.55544       19.008575      1.546865      -1.5744628      18058.126    
    366000   0.88099514     0.0023323615  -0.0033087396   20.288558      18.98028       1.3082778     -1.5021837      18119.027    
    367000   0.86714791     0.0023323615   0.00015544725  20.365538      19.077824      1.2877146     -1.542843       18350.722    
    368000   1.0983301      0.0023323615   0.0007906823   20.649502      19.018482      1.6310201     -1.4975772      18339.979    
    369000   1.0534798      0.0023323615  -0.0034237068   20.525444      18.961026      1.5644175     -1.6814065      18044.164    
    370000   0.97958233     0.0023323615   0.0022474638   20.26988       18.8152        1.4546798     -1.6607141      17934.645    
    371000   1.067617       0.0023323615   0.00021631595  20.598879      19.013468      1.5854112     -1.4744239      18272.631    
    372000   0.92761874     0.0023323615   0.001353905    20.33573       18.958216      1.3775138     -1.6131292      18246.239    
    373000   0.92590206     0.0023323615   0.00017696963  20.119983      18.745019      1.3749646     -1.6772825      18145.097    
    374000   0.93928608     0.0023323615   0.0038379975   20.326023      18.931184      1.3948398     -1.5152434      18044.535    
    375000   0.95103464     0.0023323615  -0.000922042    20.316559      18.904272      1.4122864     -1.6206074      18066.523    
    376000   1.0589692      0.0023323615   0.00012642554  20.363124      18.790555      1.5725692     -1.5956461      17942.198    
    377000   0.99762563     0.0023323615   0.0016478181   20.625779      19.144305      1.4814741     -1.4372522      18063.521    
    378000   0.97288201     0.0023323615  -0.0021309028   20.405081      18.960351      1.4447298     -1.5421189      18041.323    
    379000   1.124971       0.0023323615   0.00026209225  20.767593      19.097011      1.6705819     -1.3544869      18197.336    
    380000   1.0339242      0.0023323615  -0.00063874349  20.521976      18.986599      1.5353775     -1.6179309      18189.427    
    381000   1.0796011      0.0023323615   0.0028536525   20.449949      18.846741      1.6032076     -1.5747269      18095.175    
    382000   1.1559396      0.0023323615  -0.00026843806  20.760457      19.043887      1.7165703     -1.4631365      18097.187    
    383000   1.2370495      0.0023323615  -0.0024011694   20.702923      18.865904      1.8370186     -1.6626858      18056.277    
    384000   1.0247784      0.0023323615   0.0019556763   20.275038      18.753242      1.521796      -1.6720845      17996.008    
    385000   1.0869359      0.0023323615  -0.0017968733   20.404812      18.790713      1.6140998     -1.8115716      18032.757    
    386000   0.99734726     0.0023323615   0.0015360571   20.574465      19.093404      1.4810607     -1.5720453      18111.106    
    387000   0.9439236      0.0023323615  -0.0039196538   20.347757      18.94603       1.4017266     -1.529845       17999.045    
    388000   0.96294716     0.0023323615   0.00039132829  20.181195      18.751219      1.4299765     -1.7937998      18002.266    
    389000   1.0536068      0.0023323615   0.0034538737   20.592626      19.02802       1.5646061     -1.5132253      18023.145    
    390000   0.92552143     0.0023323615  -0.0010458643   20.301797      18.927397      1.3743993     -1.6695992      18162.485    
    391000   0.97669266     0.0023323615  -0.00096448356  20.316729      18.86634       1.4503886     -1.5408493      18122.994    
    392000   0.93313669     0.0023323615  -0.0033310964   20.458884      19.073176      1.385708      -1.4127682      18245.639    
    393000   1.0204847      0.0023323615   0.001225271    20.680017      19.164597      1.5154198     -1.3232064      18226.229    
    394000   1.0604488      0.0023323615  -0.0037871829   20.586503      19.011736      1.5747665     -1.4982301      18169.249    
    395000   1.0523356      0.0023323615  -0.00076065651  20.467086      18.904367      1.5627184     -1.7405828      18184.917    
    396000   1.0188803      0.0023323615   0.0026855225   20.633936      19.120899      1.5130373     -1.4874175      18028.572    
    397000   0.86873537     0.0023323615  -0.00055971656  20.094878      18.804806      1.290072      -1.6950951      18012.441    
    398000   1.0218466      0.0023323615  -0.0010792444   20.279695      18.762253      1.5174423     -1.7565616      18184.307    
    399000   1.0209094      0.0023323615   0.0021790692   20.629608      19.113558      1.5160505     -1.5179849      18229.258    
    400000   1.0383785      0.0023323615   0.0027949308   20.515918      18.973926      1.5419921     -1.6334007      18148.73     
    401000   1.104965       0.0023323615   0.0011699899   20.631185      18.990312      1.640873      -1.5045183      18195.044    
    402000   1.0741891      0.0023323615   0.0042268591   20.212873      18.617702      1.5951708     -1.7518859      18116.149    
    403000   0.92445978     0.0023323615   0.0018438243   20.106491      18.733668      1.3728228     -1.788358       18039.93     
    404000   1.0295846      0.0023323615   0.00079836946  20.373516      18.844583      1.5289331     -1.6693308      18062.355    
    405000   1.0325258      0.0023323615   0.00012093012  20.414181      18.88088       1.5333007     -1.5994306      18143.926    
    406000   1.0370364      0.0023323615  -0.0026461056   20.178036      18.638037      1.539999      -1.8755286      18098.624    
    407000   1.0817059      0.0023323615  -9.8058433e-05  20.534719      18.928386      1.6063333     -1.6092008      18057.806    
    408000   1.1793748      0.0023323615   0.001812158    20.513833      18.762462      1.7513716     -1.7170928      18121.589    
    409000   1.0024493      0.0023323615  -0.0018037339   20.508877      19.020239      1.4886372     -1.5255127      18039.164    
    410000   1.0679711      0.0023323615   0.0020003027   20.23463       18.648693      1.5859371     -1.8501564      18021.993    
[...]
    861000   0.86518571     0.0023323615  -0.00032313774  20.35572       19.070919      1.2848008     -1.4828941      18092.83     
    862000   1.0430627      0.0023323615  -0.00060543168  20.580105      19.031157      1.5489482     -1.3574821      18556.857    
    863000   0.92005659     0.0023323615   0.0029489431   20.291296      18.925012      1.366284      -1.5758989      18065.751    
    864000   0.95866612     0.0023323615   0.00022777831  20.557884      19.134265      1.4236192     -1.397738       18067.292    
    865000   1.2027026      0.0023323615  -0.003982911    20.662501      18.876488      1.7860134     -1.5394389      18016.967    
    866000   1.1249365      0.0023323615  -0.0036716001   20.406657      18.736126      1.6705307     -1.7561845      18163.003    
    867000   1.0041027      0.0023323615  -0.00032545764  20.448365      18.957273      1.4910925     -1.5699398      17898.214    
    868000   1.036185       0.0023323615  -0.00034795335  20.596473      19.057738      1.5387348     -1.4704334      17963.332    
    869000   1.1446795      0.0023323615   0.00016515787  20.680045      18.980196      1.6998491     -1.4426367      18089.908    
    870000   0.9098826      0.0023323615  -0.0046024069   20.324898      18.973722      1.3511757     -1.613727       18130.206    
    871000   0.8408463      0.0023323615   0.00070726432  20.388353      19.139696      1.2486568     -1.3029658      17918.08     
    872000   0.8441573      0.0023323615   0.0013970168   20.339436      19.085863      1.2535736     -1.4109122      17789.29     
    873000   0.96071935     0.0023323615  -0.00039875917  19.978263      18.551595      1.4266682     -1.9139542      17768.251    
    874000   0.98336194     0.0023323615  -0.0021653875   20.428032      18.96774       1.4602925     -1.5697295      17676.396    
    875000   0.9216956      0.0023323615   0.0021060901   20.072821      18.704103      1.368718      -1.7940637      17677.357    
    876000   0.88924446     0.0023323615  -0.00091383235  20.034242      18.713714      1.320528      -1.7407259      17817.209    
    877000   0.86330844     0.0023323615  -0.0050359749   20.105865      18.823852      1.282013      -1.6900156      17881.671    
    878000   1.0987439      0.0023323615  -0.0031612175   20.559713      18.928079      1.6316346     -1.5929903      17929.355    
    879000   1.096631       0.0023323615   0.0044700022   20.654604      19.026107      1.628497      -1.3618791      17948.351    
    880000   1.1117975      0.0023323615   6.6705494e-05  20.728866      19.077847      1.6510193     -1.4360136      17904.998    
    881000   0.96784922     0.0023323615  -0.00045489973  20.743511      19.306255      1.4372561     -1.2792213      17929.055    
    882000   0.94071805     0.0023323615  -0.00088644372  20.534655      19.137689      1.3969663     -1.4546958      17922.781    
    883000   1.1001951      0.0023323615  -0.0024557643   20.467074      18.833285      1.6337898     -1.6541977      17900.454    
    884000   1.1075866      0.0023323615   0.0027086281   20.608076      18.96331       1.644766      -1.4153504      18079.161    
    885000   0.96631528     0.0023323615  -0.0014195081   20.821611      19.386633      1.4349782     -1.1778302      18164.375    
    886000   0.95938132     0.0023323615  -0.00024441902  20.339962      18.915281      1.4246813     -1.6431224      17948.441    
    887000   0.98359626     0.0023323615  -0.00066496436  20.459776      18.999136      1.4606404     -1.5117255      17869.826    
    888000   0.89123343     0.0023323615  -0.00024679941  20.155043      18.831561      1.3234816     -1.7128296      17910.788    
    889000   1.0110587      0.0023323615  -0.0038506946   20.545391      19.043969      1.5014221     -1.4608891      18049.544    
    890000   0.97906794     0.0023323615   0.0021692812   20.274366      18.82045       1.4539159     -1.7323906      17886.731    
    891000   0.95044983     0.0023323615   0.0013343213   20.545056      19.133638      1.411418      -1.4787003      17838.315    
    892000   1.0893959      0.0023323615   0.00484171     20.427412      18.809659      1.617753      -1.7423678      18000.237    
    893000   1.0455297      0.0023323615   0.00038418018  20.52145       18.968839      1.5526116     -1.5281254      18110.235    
    894000   1.0803483      0.0023323615   0.0018218863   20.631644      19.027326      1.6043172     -1.5254346      18171.356    
    895000   0.95039345     0.0023323615   0.0036077531   20.481807      19.070473      1.4113343     -1.4213841      17955.467    
    896000   0.91358041     0.0023323615   0.00047555234  20.377879      19.021212      1.3566669     -1.386122       18101.158    
    897000   0.93338764     0.0023323615  -0.0016202657   20.654313      19.268232      1.3860806     -1.2759686      18040.749    
    898000   1.2073986      0.0023323615   0.0018411686   21.002079      19.209092      1.7929869     -1.3127591      18173.077    
    899000   0.87585472     0.0023323615  -0.0044718024   20.32984       19.029196      1.3006443     -1.4977795      17945.621    
    900000   0.90536892     0.0023323615  -0.0017775652   20.309253      18.96478       1.3444729     -1.6572605      17894.318    
    901000   1.0184844      0.0023323615   0.0040199185   20.315906      18.803456      1.5124493     -1.6586547      18047.909    
    902000   0.97240523     0.0023323615  -0.0027514748   20.316886      18.872864      1.4440218     -1.5740133      18067.108    
    903000   0.92248731     0.0023323615   0.0010741079   20.063382      18.693489      1.3698937     -1.7433028      17962.537    
    904000   1.1332357      0.0023323615   0.00076458097  20.751294      19.068439      1.6828551     -1.4317439      18142.769    
    905000   1.0761817      0.0023323615  -0.0047624626   20.62091       19.02278       1.5981299     -1.6088268      17991.716    
    906000   1.0433063      0.0023323615   0.0011611699   20.473037      18.923727      1.5493098     -1.5854799      17966.783    
    907000   0.96024578     0.0023323615  -0.0037627263   20.320959      18.894994      1.425965      -1.5828302      18173.722    
    908000   0.93135747     0.0023323615  -0.0014352606   20.031265      18.6482        1.3830658     -1.7705246      18054.386    
    909000   0.85472802     0.0023323615  -2.5572284e-05  20.212453      18.943182      1.2692711     -1.68176        18096.461    
    910000   1.0104056      0.0023323615  -0.00058875198  20.367532      18.867079      1.5004524     -1.6591445      17823.349    
    911000   0.98726568     0.0023323615  -0.0030964274   20.410318      18.944229      1.4660895     -1.6071497      18053.171    
    912000   0.97362198     0.0023323615   9.1571212e-05  20.139608      18.69378       1.4458286     -1.8147465      17962.027    
    913000   1.0776977      0.0023323615  -0.00083134116  20.50274       18.902359      1.600381      -1.485438       17905.698    
    914000   0.9593561      0.0023323615   0.002018909    20.490271      19.065627      1.4246438     -1.4558653      17963.041    
    915000   1.0586842      0.0023323615   0.0021236909   20.691268      19.119121      1.5721461     -1.4284312      17884.514    
    916000   0.81039978     0.0023323615  -0.0048868213   20.409475      19.206031      1.2034437     -1.3331507      17737.849    
    917000   0.95064737     0.0023323615  -0.0020783871   20.451045      19.039334      1.4117113     -1.5710999      17722.999    
    918000   1.0843225      0.0023323615  -0.0013985242   20.466688      18.856469      1.610219      -1.7098098      17792.775    
    919000   1.0241341      0.0023323615   0.00043554728  20.374472      18.853633      1.5208392     -1.6083962      17773.563    
    920000   1.0531644      0.0023323615  -0.0027843011   20.328812      18.764863      1.5639491     -1.6579695      17813.829    
    921000   1.1376783      0.0023323615  -0.0021817133   20.721         19.031548      1.6894523     -1.4896522      17987.248    
    922000   1.1172019      0.0023323615  -0.00087971662  20.738303      19.079258      1.6590448     -1.457853       18099.457    
    923000   1.0957524      0.0023323615   0.00010274504  20.374579      18.747387      1.6271923     -1.6938758      18032.411    
    924000   1.0479806      0.0023323615   0.0017468035   20.552703      18.996452      1.5562512     -1.544047       18018.512    
    925000   1.0612221      0.0023323615  -0.0036051366   20.236519      18.660604      1.5759148     -1.8125297      18000.61     
    926000   1.0683746      0.0023323615   0.0026349544   20.630146      19.04361       1.5865363     -1.4871468      18019.78     
    927000   0.99693061     0.0023323615   0.0018458318   20.377868      18.897426      1.480442      -1.6477435      17838.512    
    928000   1.0139852      0.0023323615   0.0011220771   20.476532      18.970764      1.505768      -1.6630363      17823.099    
    929000   1.0522138      0.0023323615  -0.0034677866   20.618147      19.05561       1.5625375     -1.5479031      18033.301    
    930000   0.93858494     0.0023323615  -0.002212022    20.520446      19.126648      1.3937986     -1.4253925      18082.272    
    931000   1.0035864      0.0023323615   0.004434777    20.770977      19.280651      1.4903258     -1.3500645      18004.156    
    932000   1.0131461      0.0023323615  -0.002901227    20.507289      19.002767      1.504522      -1.4315322      17959.638    
    933000   0.92666218     0.0023323615  -0.0015706032   20.504744      19.12865       1.3760933     -1.4852381      18026.133    
    934000   0.99731364     0.0023323615   0.0020640805   20.486087      19.005076      1.4810108     -1.5337998      17852.362    
    935000   0.95630436     0.0023323615  -0.0011878288   20.389936      18.969824      1.420112      -1.655414       17840.919    
    936000   1.0630329      0.0023323615   0.0031482404   20.47268       18.894076      1.5786039     -1.6433321      17740.529    
    937000   1.0776905      0.0023323615  -0.0021467478   20.655146      19.054775      1.6003704     -1.520214       17786.96     
    938000   1.0851177      0.0023323615   0.0041108696   20.631615      19.020215      1.6113999     -1.5724462      17916.777    
    939000   1.1417065      0.0023323615  -0.0014350091   20.928973      19.233539      1.6954341     -1.243464       18078.054    
    940000   1.0647962      0.0023323615   0.0047818336   20.45347       18.872248      1.5812224     -1.4781177      17957.228    
    941000   0.99738539     0.0023323615   0.002120281    20.422267      18.94115       1.4811173     -1.6400755      17933.317    
    942000   0.91239492     0.0023323615  -0.0011137029   20.554239      19.199332      1.3549065     -1.448188       17871.817    
    943000   1.0842864      0.0023323615   0.0021128121   20.288276      18.678111      1.6101653     -1.8449086      17841.627    
    944000   0.9495825      0.0023323615   0.00046678587  20.373487      18.963356      1.41013       -1.5473776      17959.218    
    945000   0.93363529     0.0023323615   0.0041265929   20.239332      18.852883      1.3864484     -1.6332987      17994.966    
    946000   0.98784423     0.0023323615  -0.0038504627   20.759182      19.292234      1.4669487     -1.4110205      18165.684    
    947000   0.99159108     0.0023323615  -0.0026902067   20.552378      19.079865      1.4725128     -1.6384614      18266.047    
    948000   0.93362832     0.0023323615   0.0040020843   20.362169      18.975731      1.3864381     -1.4953308      18111.257    
    949000   0.9856444      0.0023323615   0.00042686255  20.538713      19.075031      1.4636819     -1.4786776      18205.378    
    950000   1.0681195      0.0023323615  -0.00043150469  20.910952      19.324795      1.5861574     -1.4288999      18013.881    
    951000   0.89520657     0.0023323615   0.0038580521   20.360255      19.030874      1.3293818     -1.4406276      18175.654    
    952000   0.90701159     0.0023323615  -0.00086931937  20.167906      18.820994      1.3469122     -1.6032919      18080.206    
    953000   0.93642528     0.0023323615  -0.0025171812   20.297225      18.906634      1.3905915     -1.6001585      17921.844    
    954000   1.035641       0.0023323615   0.0025113065   20.248922      18.710995      1.5379269     -1.6385195      17855.585    
    955000   0.9410641      0.0023323615  -9.6424658e-05  20.285597      18.888117      1.3974802     -1.6318295      17881.21     
    956000   1.0089453      0.0023323615   0.0034135581   20.495729      18.997445      1.4982838     -1.4856974      18057.015    
    957000   1.0369128      0.0023323615   0.0035585819   20.696228      19.156413      1.5398155     -1.4843507      18374.118    
    958000   0.8824231      0.0023323615   3.3703494e-05  20.301134      18.990736      1.3103983     -1.5075802      18723.239    
    959000   1.0427829      0.0023323615   0.001432288    20.493294      18.944761      1.5485326     -1.5742383      18278.068    
    960000   0.87782641     0.0023323615   0.0013315534   20.322642      19.01907       1.3035722     -1.3702591      18209.387    
    961000   1.0220207      0.0023323615  -0.00053757831  20.616702      19.099002      1.5177007     -1.3536376      18061.021    
    962000   1.0060492      0.0023323615  -0.0027297782   20.334732      18.840749      1.493983      -1.6275549      18005.299    
    963000   1.1514298      0.0023323615   0.0015056919   20.842597      19.132723      1.7098732     -1.5106034      17747.55     
    964000   1.0047147      0.0023323615   0.00061657747  20.279034      18.787033      1.4920014     -1.6909528      17856.61     
    965000   1.0863317      0.0023323615  -0.0022998622   20.61471       19.001507      1.6132026     -1.4753483      17853.222    
    966000   1.0021406      0.0023323615  -0.0020505972   20.570088      19.081909      1.4881788     -1.4921716      17764.12     
    967000   0.94917645     0.0023323615   0.002974303    20.574851      19.165324      1.409527      -1.4582547      17731.065    
    968000   0.88540962     0.0023323615  -0.00019076728  19.989523      18.67469       1.3148333     -1.74164        17871.708    
    969000   0.98069478     0.0023323615  -0.0038967249   20.53117       19.074839      1.4563317     -1.4590081      17921.043    
    970000   0.99893142     0.0023323615   0.0052882285   20.480031      18.996618      1.4834132     -1.5239142      18021.228    
    971000   1.0622975      0.0023323615   0.0015515375   20.613222      19.03571       1.5775118     -1.434991       17896.076    
    972000   0.94277007     0.0023323615  -0.0012329161   20.554726      19.154712      1.4000136     -1.4486634      17937.922    
    973000   0.89607827     0.0023323615   0.0021375946   20.217818      18.887142      1.3306762     -1.6122618      17971.489    
    974000   0.87799594     0.0023323615   0.0046927117   20.224026      18.920203      1.303824      -1.5548046      17954.95     
    975000   0.95340995     0.0023323615   0.00066031652  20.410023      18.994209      1.4158138     -1.4369387      17909.014    
    976000   1.1460015      0.0023323615   0.0010752316   20.743361      19.041549      1.7018122     -1.443277       17836.957    
    977000   0.96762015     0.0023323615   0.0036539504   20.56319       19.126274      1.4369159     -1.4505523      18034.823    
    978000   1.0410709      0.0023323615   0.0031914918   20.634832      19.088842      1.5459903     -1.4132123      17953.949    
    979000   0.96029951     0.0023323615   0.0009132213   20.37275       18.946705      1.4260448     -1.6551358      18017.003    
    980000   1.0835053      0.0023323615   0.0018712189   20.643252      19.034247      1.6090054     -1.5920937      17894.684    
    981000   0.95460174     0.0023323615  -0.0014046498   20.429234      19.011651      1.4175836     -1.5865592      17934.213    
    982000   0.83572067     0.0023323615   0.00040001637  20.113795      18.87275       1.2410452     -1.5947367      17905.807    
    983000   1.0314016      0.0023323615  -0.0010193856   20.415238      18.883607      1.5316314     -1.6946152      17726.621    
    984000   1.0083367      0.0023323615  -0.0004839738   20.451687      18.954307      1.49738       -1.533546       17958.481    
    985000   1.0373395      0.0023323615   0.00078420277  20.789032      19.248582      1.5404491     -1.3431483      18811.737    
    986000   0.95182761     0.0023323615   0.0013234839   20.313653      18.900189      1.413464      -1.5584273      19699.585    
    987000   0.98170886     0.0023323615  -0.00031715119  20.29051       18.832672      1.4578377     -1.7439966      19642.62     
    988000   1.1579134      0.0023323615   0.0038356409   20.71332       18.993819      1.7195014     -1.6360783      19546.711    
    989000   0.98178469     0.0023323615   0.0010704926   20.295906      18.837955      1.4579503     -1.7241156      19426.576    
    990000   0.85675894     0.0023323615  -0.0044258348   20.172         18.899713      1.272287      -1.5984475      19606.663    
    991000   1.0276658      0.0023323615   0.0025158172   20.654074      19.12799       1.5260837     -1.4749472      18216.575    
    992000   0.91063516     0.0023323615  -0.00068135877  20.524883      19.17259       1.3522932     -1.5511889      17917.813    
    993000   0.99852862     0.0023323615  -0.0026056502   20.280523      18.797708      1.482815      -1.8138404      18553.276    
    994000   0.92368152     0.0023323615   0.0019721309   20.397919      19.026252      1.3716671     -1.5216238      19430.607    
    995000   0.89844556     0.0023323615  -0.0039638034   20.334982      19.00079       1.3341917     -1.5348022      19660.302    
    996000   0.92432607     0.0023323615  -0.00016635813  20.446378      19.073754      1.3726242     -1.4337027      18476.763    
    997000   1.0707924      0.0023323615   0.0020005382   20.668421      19.078294      1.5901267     -1.4371662      18362.027    
    998000   0.97653544     0.0023323615  -0.0046873319   20.359773      18.909617      1.4501551     -1.6735786      17975.732    
    999000   1.0212874      0.0023323615   0.0013747512   20.351753      18.835142      1.5166118     -1.6088795      19229.13     
   1000000   0.87855342     0.0023323615  -0.0017651833   20.272459      18.967807      1.3046518     -1.6215862      18687.141    
Loop time of 55.0002 on 1 procs for 1000000 steps with 100 atoms

Performance: 7854517.867 tau/day, 18181.754 timesteps/s
99.3% CPU use with 1 MPI tasks x 1 OpenMP threads

MPI task timing breakdown:
Section |  min time  |  avg time  |  max time  |%varavg| %total
---------------------------------------------------------------
Pair    | 45.715     | 45.715     | 45.715     |   0.0 | 83.12
Bond    | 1.3001     | 1.3001     | 1.3001     |   0.0 |  2.36
Neigh   | 3.7917     | 3.7917     | 3.7917     |   0.0 |  6.89
Comm    | 1.6355     | 1.6355     | 1.6355     |   0.0 |  2.97
Output  | 0.25348    | 0.25348    | 0.25348    |   0.0 |  0.46
Modify  | 1.9538     | 1.9538     | 1.9538     |   0.0 |  3.55
Other   |            | 0.3503     |            |       |  0.64

Nlocal:            100 ave         100 max         100 min
Histogram: 1 0 0 0 0 0 0 0 0 0
Nghost:            304 ave         304 max         304 min
Histogram: 1 0 0 0 0 0 0 0 0 0
Neighs:           4851 ave        4851 max        4851 min
Histogram: 1 0 0 0 0 0 0 0 0 0

Total # of neighbors = 4851
Ave neighs/atom = 48.51
Ave special neighs/atom = 1.98
Neighbor list builds = 97824
Dangerous builds = 79487

write_data      ${outputfile_assembled} nofix nocoeff
write_data      7_assembled.data nofix nocoeff
System init for write_data ...
Generated 0 of 6 mixed pair_coeff terms from geometric mixing rule

Total wall time: 0:00:56
