LAMMPS (23 Jun 2022 - Update 1)
OMP_NUM_THREADS environment is not set. Defaulting to 1 thread. (src/comm.cpp:98)
  using 1 OpenMP thread(s) per MPI task


variable        runtime equal 1000000
variable		subsample_rate equal 1000

variable		outputfile_created string '3_created.data'
variable		outputfile_relaxed string '5_relaxed.data'
variable		outputfile_selfasb string '6_a_self_assemble.lammpstrj'
variable		outputfile_trajlin string '6_b_trajlin.data'
variable		outputfile_assembled string '7_assembled.data'

units           lj
atom_style      full
dimension       3
boundary        p p p
timestep        0.005

read_data       ${outputfile_created}
read_data       3_created.data
Reading data file ...
  orthogonal box = (0 0 0) to (35 35 35)
  1 by 1 by 1 MPI processor grid
  reading atoms ...
  100 atoms
  reading velocities ...
  100 velocities
  scanning bonds ...
  1 = max bonds/atom
  reading bonds ...
  99 bonds
Finding 1-2 1-3 1-4 neighbors ...
  special bond factors lj:    0        0        0       
  special bond factors coul:  0        0        0       
     2 = max # of 1-2 neighbors
     2 = max # of 1-3 neighbors
     4 = max # of 1-4 neighbors
     6 = max # of special neighbors
  special bonds CPU = 0.000 seconds
  read_data CPU = 0.006 seconds

bond_style      fene
bond_coeff      * 30.0 1.5 1.0 1.0
special_bonds   fene
Finding 1-2 1-3 1-4 neighbors ...
  special bond factors lj:    0        1        1       
  special bond factors coul:  0        1        1       
     2 = max # of 1-2 neighbors
     6 = max # of special neighbors
  special bonds CPU = 0.000 seconds

variable        Temp equal 1.0
variable        velSeed equal 926458

velocity        all create ${Temp} ${velSeed}
velocity        all create 1 ${velSeed}
velocity        all create 1 926458

### Output
thermo_style    custom step temp density press etotal pe ke epair spcpu
thermo          1000

###########################################################################
# Soft relaxation (to remove overlaps of particles)
######################################################################

pair_style      soft 1.0
pair_coeff      * * 0.0
variable        prefactor equal ramp(0,300)
fix             rampSoft all adapt 1 pair soft a * * v_prefactor

minimize        0.0 1.0e-8 1000 100000
WARNING: Using 'neigh_modify every 1 delay 0 check yes' setting during minimization (src/min.cpp:187)
Generated 0 of 6 mixed pair_coeff terms from geometric mixing rule
Neighbor list info ...
  update every 1 steps, delay 0 steps, check yes
  max neighbors/atom: 2000, page size: 100000
  master list distance cutoff = 1.3
  ghost atom cutoff = 1.3
  binsize = 0.65, bins = 54 54 54
  1 neighbor lists, perpetual/occasional/extra = 1 0 0
  (1) pair soft, perpetual
      attributes: half, newton on
      pair build: half/bin/newton
      stencil: half/bin/3d
      bin: standard
WARNING: Communication cutoff 1.3 is shorter than a bond length based estimate of 1.7550000000000001. This may lead to errors. (src/comm.cpp:727)
Per MPI rank memory allocation (min/avg/max) = 8.346 | 8.346 | 8.346 Mbytes
   Step          Temp         Density         Press          TotEng         PotEng         KinEng         E_pair         S/CPU     
         0   1              0.0023323615  -0.0039617958   21.524174      20.039174      1.485          0              0            
       362   1              0.0023323615   0.0023090379   21.485548      20.000548      1.485          0              71137.732    
Loop time of 0.00509128 on 1 procs for 362 steps with 100 atoms

99.6% CPU use with 1 MPI tasks x 1 OpenMP threads

Minimization stats:
  Stopping criterion = force tolerance
  Energy initial, next-to-last, final = 
      20.0391741078675   20.0005480767337   20.0005480767337
  Force two-norm initial, final = 11.878422 7.9509778e-09
  Force max component initial, final = 6.6117807 1.3572772e-09
  Final line search alpha, max atom move = 1 1.3572772e-09
  Iterations, force evaluations = 362 738

MPI task timing breakdown:
Section |  min time  |  avg time  |  max time  |%varavg| %total
---------------------------------------------------------------
Pair    | 0.00021451 | 0.00021451 | 0.00021451 |   0.0 |  4.21
Bond    | 0.0023231  | 0.0023231  | 0.0023231  |   0.0 | 45.63
Neigh   | 0.0013957  | 0.0013957  | 0.0013957  |   0.0 | 27.41
Comm    | 0.00018346 | 0.00018346 | 0.00018346 |   0.0 |  3.60
Output  | 0          | 0          | 0          |   0.0 |  0.00
Modify  | 0          | 0          | 0          |   0.0 |  0.00
Other   |            | 0.0009745  |            |       | 19.14

Nlocal:            100 ave         100 max         100 min
Histogram: 1 0 0 0 0 0 0 0 0 0
Nghost:             20 ave          20 max          20 min
Histogram: 1 0 0 0 0 0 0 0 0 0
Neighs:              0 ave           0 max           0 min
Histogram: 1 0 0 0 0 0 0 0 0 0

Total # of neighbors = 0
Ave neighs/atom = 0
Ave special neighs/atom = 1.98
Neighbor list builds = 17
Dangerous builds = 0

fix             nvtSoft all nvt temp ${Temp} ${Temp} 0.5
fix             nvtSoft all nvt temp 1 ${Temp} 0.5
fix             nvtSoft all nvt temp 1 1 0.5
run             100000
Generated 0 of 6 mixed pair_coeff terms from geometric mixing rule
WARNING: Communication cutoff 1.3 is shorter than a bond length based estimate of 1.7550000000000001. This may lead to errors. (src/comm.cpp:727)
Per MPI rank memory allocation (min/avg/max) = 7.221 | 7.221 | 7.221 Mbytes
   Step          Temp         Density         Press          TotEng         PotEng         KinEng         E_pair         S/CPU     
       362   1              0.0023323615   0.0023090379   21.485548      20.000548      1.485          0              0            
      1000   0.90989032     0.0023323615  -0.0021940042   21.776974      20.425787      1.3511871      0.00036425437  78364.227    
      2000   0.86546688     0.0023323615   0.0034714157   21.677128      20.39191       1.2852183      0.0025814786   77042.546    
      3000   0.98199538     0.0023323615   0.0028144228   21.866132      20.407869      1.4582631      0.0011756043   73698.854    
      4000   1.004495       0.0023323615  -0.0014058211   21.945624      20.453949      1.4916751      0.011986179    72797.863    
      5000   1.1222705      0.0023323615   0.0044495116   21.986385      20.319813      1.6665718      0.0050317639   73788.311    
      6000   1.0538243      0.0023323615   0.0023957538   21.985713      20.420784      1.564929       0.012100514    74358.023    
      7000   1.0210598      0.0023323615  -0.00038820026  21.904665      20.388391      1.5162738      0              76350.151    
      8000   0.94819751     0.0023323615   0.0024943091   21.747889      20.339816      1.4080733      0              75999.889    
      9000   0.92364502     0.0023323615   0.0020053029   21.724166      20.352554      1.3716129      1.7780894e-05  75322.27     
     10000   0.86685188     0.0023323615   0.00078277366  21.644879      20.357604      1.287275       0.0098636418   75820.984    
     11000   1.0057103      0.0023323615   0.00010113276  21.8558        20.362321      1.4934798      0.020705341    75131.937    
     12000   0.97901664     0.0023323615  -0.0026996968   21.871206      20.417366      1.4538397      0.0052928539   75571.544    
     13000   0.97718436     0.0023323615  -6.1641422e-06  21.963706      20.512587      1.4511188      0.025022446    75302.441    
     14000   1.0530014      0.0023323615  -0.0009993112   21.947994      20.384287      1.5637071      0.0020860456   74571.966    
     15000   0.99094527     0.0023323615   0.0011068478   21.895146      20.423592      1.4715537      0.0015091113   75162.432    
     16000   0.91285091     0.0023323615  -0.00025424173  21.87524       20.519657      1.3555836      0.0047853639   74974.484    
     17000   0.82806978     0.0023323615  -0.00054698156  21.701984      20.472301      1.2296836      0              75314.827    
     18000   1.043278       0.0023323615  -6.6143919e-05  22.003299      20.454031      1.5492679      0.0034319132   76318.802    
     19000   1.0879249      0.0023323615  -0.0017804642   21.998985      20.383416      1.6155685      0.015376175    74906.294    
     20000   1.1144506      0.0023323615   0.0025198298   22.190904      20.535944      1.6549592      0              76059.654    
     21000   1.0427751      0.0023323615   0.0011345349   22.099492      20.550971      1.548521       0.00040047813  76060.695    
     22000   1.0586695      0.0023323615   0.0017882747   22.05673       20.484606      1.5721242      0              75871.93     
     23000   1.0058426      0.0023323615  -0.0055245362   21.954628      20.460951      1.4936763      0.0027619031   73827.883    
     24000   0.98273442     0.0023323615   0.0015147357   21.862067      20.402707      1.4593606      0              75587.167    
     25000   0.95835343     0.0023323615   0.0017808774   21.937761      20.514606      1.4231548      0.00020839942  75288.182    
     26000   0.93993778     0.0023323615  -0.0021777292   21.884849      20.489042      1.3958076      0.0088889834   75899.911    
     27000   0.9308188      0.0023323615  -0.00011239942  21.842252      20.459986      1.3822659      0.021612409    75078.592    
     28000   1.0149581      0.0023323615   0.0041996387   21.906846      20.399633      1.5072129      0.0064059022   75503.056    
     29000   0.92841138     0.0023323615  -2.5398808e-05  21.987185      20.608494      1.3786909      0.0046112484   75506.203    
     30000   1.021043       0.0023323615   0.001589158    22.097958      20.581709      1.5162489      0.016799508    73289.582    
     31000   1.0465985      0.0023323615  -0.0021744286   22.037917      20.483718      1.5541987      0.0057879149   75583.048    
     32000   0.98907108     0.0023323615  -0.0015558606   22.044089      20.575318      1.4687705      0.009448173    75013.476    
     33000   1.0918536      0.0023323615  -0.0025643847   22.039275      20.417873      1.6214025      0              74145.864    
     34000   0.99801543     0.0023323615   0.0016279766   21.932339      20.450286      1.4820529      0.017384617    76623.925    
     35000   1.0352271      0.0023323615  -0.0052971711   22.076004      20.538692      1.5373122      0.00010473809  75222.425    
     36000   1.1141579      0.0023323615  -0.00093279925  22.222491      20.567966      1.6545245      0.00033678641  76567.849    
     37000   1.0369415      0.0023323615   0.00013065175  22.217841      20.677983      1.5398581      0.013788831    75721.872    
     38000   1.0515596      0.0023323615   0.0021717558   22.070766      20.5092        1.561566       0.0067894678   76095.544    
     39000   1.0238495      0.0023323615   0.00026414509  22.040141      20.519725      1.5204165      0.00044464649  75405.125    
     40000   1.0749111      0.0023323615  -0.0026849368   22.039327      20.443084      1.596243       0.012651334    73573.794    
     41000   0.99070886     0.0023323615  -0.0030385564   22.03241       20.561207      1.4712027      0.00092855646  76601.111    
     42000   0.95315224     0.0023323615   0.0019788197   21.965263      20.549832      1.4154311      0.020233689    75059.962    
     43000   1.0644183      0.0023323615  -0.0011168725   22.287172      20.706511      1.5806611      0.039694129    67892.613    
     44000   1.0253747      0.0023323615  -0.006676522    22.066233      20.543552      1.5226814      0              73616.61     
     45000   0.94179556     0.0023323615  -0.0047206018   21.970644      20.572077      1.3985664      0.019869988    74770.101    
     46000   1.0083495      0.0023323615  -0.0017646918   21.972114      20.474715      1.497399       0.00026040605  75127.252    
     47000   0.98767959     0.0023323615  -0.00080218158  22.091674      20.62497       1.4667042      0.024266258    74880.324    
     48000   1.1473449      0.0023323615  -0.0025885687   22.080512      20.376705      1.7038072      0.00065962995  75370.281    
     49000   1.0679312      0.0023323615   0.0017688272   21.970482      20.384604      1.5858779      0.014142422    76315.704    
     50000   0.9581935      0.0023323615   0.0014398836   21.955202      20.532284      1.4229173      0.0055011948   75923.232    
     51000   1.0215759      0.0023323615  -0.00093292688  21.934681      20.41764       1.5170402      0              75523.459    
     52000   0.98079591     0.0023323615   0.0040701936   21.977374      20.520892      1.4564819      0.0020862422   76044.933    
     53000   1.0090927      0.0023323615   0.0013324753   22.095438      20.596935      1.4985027      0              75037.618    
     54000   0.97519627     0.0023323615   0.0013260734   22.070151      20.621984      1.4481665      0.026885444    76498.896    
     55000   1.1805087      0.0023323615  -0.001586238    22.424088      20.671033      1.7530554      0.024690954    76001.858    
     56000   0.98387121     0.0023323615   0.0037155145   22.104425      20.643376      1.4610487      0.01435493     75665.957    
     57000   1.0723812      0.0023323615  -0.0037916262   22.122726      20.53024       1.592486       0.013635549    76173.947    
     58000   1.0152349      0.0023323615   0.00021908047  22.082827      20.575203      1.5076238      0.00077375639  75917.457    
     59000   1.1424502      0.0023323615  -0.0052108657   22.30072       20.604182      1.6965385      0.013308184    76781.486    
     60000   1.0359703      0.0023323615  -0.00097887545  22.188218      20.649802      1.538416       0.00011346294  75193.635    
     61000   1.1646839      0.0023323615  -0.002085017    22.239945      20.51039       1.7295556      0.012918477    77483.203    
     62000   1.101836       0.0023323615   0.0010338878   22.171386      20.53516       1.6362265      0.001396566    76114.402    
     63000   0.96616435     0.0023323615   0.00097550571  21.903821      20.469067      1.4347541      0.013027663    77473.4      
     64000   1.0068907      0.0023323615  -0.0020278726   22.061652      20.566419      1.4952327      0.013750276    75930.456    
     65000   0.98723233     0.0023323615   0.0022441476   22.031073      20.565033      1.46604        0.0066686189   76436.038    
     66000   1.0273881      0.0023323615  -0.0003515278   22.183579      20.657908      1.5256713      0              74657.977    
     67000   0.96528212     0.0023323615  -0.00014822656  21.9396        20.506156      1.4334439      0.010365557    76606.457    
     68000   1.069702       0.0023323615   9.4754668e-05  22.081119      20.492611      1.5885075      0.00049153926  73801.953    
     69000   1.1229502      0.0023323615   0.0011504079   22.200329      20.532748      1.6675811      0.0068454249   76547.711    
     70000   1.0062775      0.0023323615  -0.00085311964  22.094021      20.599699      1.4943221      0.013222355    74773.858    
     71000   1.0906935      0.0023323615   0.00015260357  22.145362      20.525682      1.6196798      0.018338513    75877.122    
     72000   1.010401       0.0023323615  -6.0487182e-06  22.154105      20.653659      1.5004455      0.0013793953   74650.877    
     73000   1.1177599      0.0023323615  -0.0034084797   22.254435      20.594562      1.6598735      0.00011231735  77082.293    
     74000   0.9768019      0.0023323615   0.00016143893  22.07312       20.622569      1.4505508      0.0084515956   75031.352    
     75000   1.1360996      0.0023323615   0.002159116    22.161595      20.474487      1.6871079      0.0089909162   75880.174    
     76000   0.97379329     0.0023323615  -0.00068458621  21.988928      20.542845      1.446083       0              75320.114    
     77000   0.94876793     0.0023323615  -0.0016073976   21.923496      20.514575      1.4089204      0.017745108    75442.398    
     78000   0.83947996     0.0023323615  -0.00062768559  21.726727      20.480099      1.2466277      0.0054510099   75926.87     
     79000   1.0090614      0.0023323615  -0.00080262643  22.068192      20.569736      1.4984562      0.00023011166  76477.449    
     80000   1.1217643      0.0023323615  -0.0038177864   22.367902      20.702082      1.66582        0.032902439    75710.549    
     81000   1.0240158      0.0023323615   0.00023547123  22.031597      20.510933      1.5206635      0.0068767308   75419.713    
     82000   1.003236       0.0023323615  -0.0022802982   21.894199      20.404393      1.4898055      0.019136282    74564.499    
     83000   1.0554159      0.0023323615   0.004011718    22.104562      20.537269      1.5672927      0.0080869707   74058.664    
     84000   0.83527346     0.0023323615  -0.0034122221   21.874648      20.634267      1.2403811      0.0030083664   75469.095    
     85000   1.036002       0.0023323615   0.0013573923   21.962923      20.42446       1.5384629      0.015709144    76111.268    
     86000   0.9432002      0.0023323615  -0.0032183248   21.913588      20.512936      1.4006523      0.013730309    76076.816    
     87000   0.95566008     0.0023323615  -0.00049614223  21.91653       20.497375      1.4191552      0.0035862035   74948.816    
     88000   0.93373351     0.0023323615  -0.00097093893  21.870485      20.483891      1.3865943      0.0018212145   74709.721    
     89000   0.9684944      0.0023323615  -0.00047342045  21.973429      20.535215      1.4382142      0.00087524744  75102.596    
     90000   0.98293324     0.0023323615  -0.0032204602   22.050919      20.591263      1.4596559      0.015353933    76104.775    
     91000   1.0832827      0.0023323615   0.0048517083   22.11977       20.511095      1.6086749      0.0052867789   77281.389    
     92000   0.85899662     0.0023323615  -0.0013049519   21.765697      20.490087      1.27561        0.0024124001   76130.083    
     93000   0.96176266     0.0023323615  -4.4223672e-05  21.874222      20.446004      1.4282176      0.0045653365   76977.008    
     94000   0.96019503     0.0023323615   0.00024459347  21.944954      20.519064      1.4258896      3.8053462e-05  76444.593    
     95000   0.94702149     0.0023323615  -0.0033658915   21.86315       20.456823      1.4063269      0              76972.73     
     96000   0.91119348     0.0023323615  -0.0013197298   21.825018      20.471896      1.3531223      0.00043282989  75614.315    
     97000   1.0016687      0.0023323615  -0.0019514304   22.013024      20.525546      1.487478       0.0048369955   75072.606    
     98000   1.02143        0.0023323615  -0.0057874974   22.177965      20.661142      1.5168235      0              74088.068    
     99000   1.032786       0.0023323615   0.0018228259   21.975336      20.441649      1.5336871      7.1595851e-05  77221.604    
    100000   1.0594928      0.0023323615   0.0036169719   22.011024      20.437677      1.5733468      0.00032948157  75650.301    
    100362   1.1904942      0.0023323615  -0.00089755607  22.316856      20.548972      1.7678839      0.00063845255  75176.134    
Loop time of 1.32537 on 1 procs for 100000 steps with 100 atoms

Performance: 32594715.747 tau/day, 75450.731 timesteps/s
99.2% CPU use with 1 MPI tasks x 1 OpenMP threads

MPI task timing breakdown:
Section |  min time  |  avg time  |  max time  |%varavg| %total
---------------------------------------------------------------
Pair    | 0.049769   | 0.049769   | 0.049769   |   0.0 |  3.76
Bond    | 0.12608    | 0.12608    | 0.12608    |   0.0 |  9.51
Neigh   | 0.80674    | 0.80674    | 0.80674    |   0.0 | 60.87
Comm    | 0.055735   | 0.055735   | 0.055735   |   0.0 |  4.21
Output  | 0.0011397  | 0.0011397  | 0.0011397  |   0.0 |  0.09
Modify  | 0.25165    | 0.25165    | 0.25165    |   0.0 | 18.99
Other   |            | 0.03425    |            |       |  2.58

Nlocal:            100 ave         100 max         100 min
Histogram: 1 0 0 0 0 0 0 0 0 0
Nghost:             60 ave          60 max          60 min
Histogram: 1 0 0 0 0 0 0 0 0 0
Neighs:             36 ave          36 max          36 min
Histogram: 1 0 0 0 0 0 0 0 0 0

Total # of neighbors = 36
Ave neighs/atom = 0.36
Ave special neighs/atom = 1.98
Neighbor list builds = 9821
Dangerous builds = 8265
unfix           nvtSoft
unfix           rampSoft
reset_timestep  0

write_data      ${outputfile_relaxed}
write_data      5_relaxed.data
System init for write_data ...
Generated 0 of 6 mixed pair_coeff terms from geometric mixing rule
WARNING: Communication cutoff 1.3 is shorter than a bond length based estimate of 1.7550000000000001. This may lead to errors. (src/comm.cpp:727)
WARNING: Not all mixed pair coeffs generated from mixing. Use write_data with 'pair ij' option to store all pair coeffs. (src/write_data.cpp:309)

###########################################################################
# Full LJ with Coulomb
######################################################################

# Cutoffs and parameters:
# - Values: Marcel Verkade's Bachelor Thesis
# - Mapping to atom groups: Patrick Onck's paper
# - 1: aliphatic, 2: aromatic, 3: anion, 4: cation
# pair_style	lj/cut/coul/cut <lj_cut_global> <coul_cut_global>
# pair_coeff	<type_1>  <type_2>  <eps>  <sigma>  <r_cut_lj>  <r_cut_coul>

# Problem: Onck's model is much more complex, and Marcel has no sigma reported
# Using sigma=1 randomly

variable		glob_ljeps equal 1.0
variable		glob_ljsig 	equal 1.0
variable		glob_coulcut equal 10.0
variable		att_ljcut equal 2.50
variable		rep_ljcut equal 1.12

pair_style		lj/cut/coul/cut 						${att_ljcut} 	${glob_coulcut}
pair_style		lj/cut/coul/cut 						2.5 	${glob_coulcut}
pair_style		lj/cut/coul/cut 						2.5 	10
pair_coeff		1 1 	${glob_ljeps} 	${glob_ljsig}	${att_ljcut} 	${glob_coulcut}
pair_coeff		1 1 	1 	${glob_ljsig}	${att_ljcut} 	${glob_coulcut}
pair_coeff		1 1 	1 	1	${att_ljcut} 	${glob_coulcut}
pair_coeff		1 1 	1 	1	2.5 	${glob_coulcut}
pair_coeff		1 1 	1 	1	2.5 	10
pair_coeff		1 2 	${glob_ljeps} 	${glob_ljsig}	${att_ljcut} 	${glob_coulcut}
pair_coeff		1 2 	1 	${glob_ljsig}	${att_ljcut} 	${glob_coulcut}
pair_coeff		1 2 	1 	1	${att_ljcut} 	${glob_coulcut}
pair_coeff		1 2 	1 	1	2.5 	${glob_coulcut}
pair_coeff		1 2 	1 	1	2.5 	10
pair_coeff		1 3 	${glob_ljeps} 	${glob_ljsig}	${rep_ljcut} 	${glob_coulcut}
pair_coeff		1 3 	1 	${glob_ljsig}	${rep_ljcut} 	${glob_coulcut}
pair_coeff		1 3 	1 	1	${rep_ljcut} 	${glob_coulcut}
pair_coeff		1 3 	1 	1	1.12 	${glob_coulcut}
pair_coeff		1 3 	1 	1	1.12 	10
pair_coeff		1 4 	${glob_ljeps} 	${glob_ljsig}	${rep_ljcut} 	${glob_coulcut}
pair_coeff		1 4 	1 	${glob_ljsig}	${rep_ljcut} 	${glob_coulcut}
pair_coeff		1 4 	1 	1	${rep_ljcut} 	${glob_coulcut}
pair_coeff		1 4 	1 	1	1.12 	${glob_coulcut}
pair_coeff		1 4 	1 	1	1.12 	10
pair_coeff		2 2 	${glob_ljeps} 	${glob_ljsig}	${att_ljcut} 	${glob_coulcut}
pair_coeff		2 2 	1 	${glob_ljsig}	${att_ljcut} 	${glob_coulcut}
pair_coeff		2 2 	1 	1	${att_ljcut} 	${glob_coulcut}
pair_coeff		2 2 	1 	1	2.5 	${glob_coulcut}
pair_coeff		2 2 	1 	1	2.5 	10
pair_coeff		2 3 	${glob_ljeps} 	${glob_ljsig}	${rep_ljcut} 	${glob_coulcut}
pair_coeff		2 3 	1 	${glob_ljsig}	${rep_ljcut} 	${glob_coulcut}
pair_coeff		2 3 	1 	1	${rep_ljcut} 	${glob_coulcut}
pair_coeff		2 3 	1 	1	1.12 	${glob_coulcut}
pair_coeff		2 3 	1 	1	1.12 	10
pair_coeff		2 4 	${glob_ljeps} 	${glob_ljsig}	${att_ljcut} 	${glob_coulcut}
pair_coeff		2 4 	1 	${glob_ljsig}	${att_ljcut} 	${glob_coulcut}
pair_coeff		2 4 	1 	1	${att_ljcut} 	${glob_coulcut}
pair_coeff		2 4 	1 	1	2.5 	${glob_coulcut}
pair_coeff		2 4 	1 	1	2.5 	10
pair_coeff		3 3 	${glob_ljeps} 	${glob_ljsig}	${rep_ljcut} 	${glob_coulcut}
pair_coeff		3 3 	1 	${glob_ljsig}	${rep_ljcut} 	${glob_coulcut}
pair_coeff		3 3 	1 	1	${rep_ljcut} 	${glob_coulcut}
pair_coeff		3 3 	1 	1	1.12 	${glob_coulcut}
pair_coeff		3 3 	1 	1	1.12 	10
pair_coeff		3 4 	${glob_ljeps} 	${glob_ljsig}	${att_ljcut} 	${glob_coulcut}
pair_coeff		3 4 	1 	${glob_ljsig}	${att_ljcut} 	${glob_coulcut}
pair_coeff		3 4 	1 	1	${att_ljcut} 	${glob_coulcut}
pair_coeff		3 4 	1 	1	2.5 	${glob_coulcut}
pair_coeff		3 4 	1 	1	2.5 	10
pair_coeff		4 4 	${glob_ljeps} 	${glob_ljsig}	${rep_ljcut} 	${glob_coulcut}
pair_coeff		4 4 	1 	${glob_ljsig}	${rep_ljcut} 	${glob_coulcut}
pair_coeff		4 4 	1 	1	${rep_ljcut} 	${glob_coulcut}
pair_coeff		4 4 	1 	1	1.12 	${glob_coulcut}
pair_coeff		4 4 	1 	1	1.12 	10


fix             noDriftRot 	all momentum 10 linear 1 1 1 angular
fix             nvt1 		all nvt temp ${Temp} ${Temp} 0.5
fix             nvt1 		all nvt temp 1 ${Temp} 0.5
fix             nvt1 		all nvt temp 1 1 0.5

# dump          assemble 	all custom 1000 				${outputfile_selfasb} id type xu yu zu vx vy vz
dump            lindump 	all custom ${subsample_rate} 	${outputfile_trajlin} id type xu yu zu vx vy vz
dump            lindump 	all custom 1000 	${outputfile_trajlin} id type xu yu zu vx vy vz
dump            lindump 	all custom 1000 	6_b_trajlin.data id type xu yu zu vx vy vz

run             ${runtime}
run             1000000
Generated 0 of 6 mixed pair_coeff terms from geometric mixing rule
Neighbor list info ...
  update every 1 steps, delay 10 steps, check yes
  max neighbors/atom: 2000, page size: 100000
  master list distance cutoff = 10.3
  ghost atom cutoff = 10.3
  binsize = 5.15, bins = 7 7 7
  1 neighbor lists, perpetual/occasional/extra = 1 0 0
  (1) pair lj/cut/coul/cut, perpetual
      attributes: half, newton on
      pair build: half/bin/newton
      stencil: half/bin/3d
      bin: standard
Per MPI rank memory allocation (min/avg/max) = 7.712 | 7.712 | 7.712 Mbytes
   Step          Temp         Density         Press          TotEng         PotEng         KinEng         E_pair         S/CPU     
         0   1.1904942      0.0023323615  -0.001773617    21.903535      20.135651      1.7678839     -0.4126831      0            
      1000   0.94510076     0.0023323615  -0.0016781314   20.937106      19.533631      1.4034746     -0.90807779     33059.014    
      2000   1.1472094      0.0023323615  -0.003772666    20.865318      19.161712      1.703606      -1.2681812      29542.821    
      3000   1.0013034      0.0023323615   0.0030621133   20.794069      19.307134      1.4869355     -1.3302326      24634.907    
      4000   1.0717478      0.0023323615   0.0018902586   20.176129      18.584583      1.5915455     -1.9106022      19240.65     
      5000   0.96403698     0.0023323615  -0.00016630708  19.909461      18.477867      1.4315949     -1.9784155      18206.358    
      6000   1.0200884      0.0023323615   0.00020107117  20.392523      18.877692      1.5148313     -1.6918581      18111.895    
      7000   0.86622184     0.0023323615   0.0010314603   20.064888      18.778548      1.2863394     -1.7137669      18222.096    
      8000   1.0138489      0.0023323615  -0.0014350521   20.474175      18.968609      1.5055657     -1.6008011      18214.933    
      9000   0.99736307     0.0023323615   0.0002973373   19.980894      18.49981       1.4810842     -2.10397        18230.853    
     10000   0.95980742     0.0023323615   0.0020145082   19.9389        18.513586      1.425314      -2.0056014      17944.766    
     11000   1.0361982      0.0023323615   0.0021687875   19.923779      18.385025      1.5387543     -2.0901841      17972.315    
     12000   0.98150972     0.0023323615   0.0047965221   20.144201      18.686659      1.4575419     -1.8697702      17908.747    
     13000   1.0813045      0.0023323615   0.002353391    20.132406      18.526668      1.6057372     -1.9515549      18019.468    
     14000   0.98616991     0.0023323615  -4.3030567e-05  20.004602      18.540139      1.4644623     -2.0931655      17931.632    
     15000   0.86255389     0.0023323615   0.0032354164   19.696139      18.415246      1.2808925     -1.9904172      18057.688    
     16000   0.86685509     0.0023323615   0.0042278527   19.751957      18.464677      1.2872798     -2.0653932      18108.497    
     17000   0.90015028     0.0023323615   0.0018869649   19.875915      18.539191      1.3367232     -2.0758885      17930.134    
     18000   1.0097253      0.0023323615  -0.0037621625   20.267757      18.768314      1.4994421     -1.789812       17983.836    
     19000   1.0700274      0.0023323615  -0.0033784681   20.100725      18.511734      1.5889906     -2.0647036      18152.766    
     20000   0.91769564     0.0023323615  -0.00027570364  20.029092      18.666314      1.362778      -1.8866743      18067.874    
     21000   0.98153076     0.0023323615  -0.00048271588  20.008955      18.551382      1.4575732     -1.9786569      18093.089    
     22000   0.90243025     0.0023323615   0.0019668185   19.730637      18.390528      1.3401089     -2.141402       17892.339    
     23000   1.0276478      0.0023323615  -0.0024344323   20.048557      18.5225        1.526057      -1.9233483      17997.066    
     24000   0.8148629      0.0023323615   0.0014670765   19.707067      18.496996      1.2100714     -2.0919952      17995.152    
     25000   0.93034438     0.0023323615   0.00058415001  19.728134      18.346573      1.3815614     -2.0989403      17646.373    
     26000   1.0594017      0.0023323615   0.0053385994   19.862131      18.28892       1.5732116     -2.2017611      17803.153    
     27000   0.88145851     0.0023323615   0.001355356    19.720202      18.411236      1.3089659     -2.0804681      17773.917    
     28000   1.101412       0.0023323615   0.00027423613  20.078639      18.443042      1.6355968     -1.9898036      17703.494    
     29000   1.1225951      0.0023323615  -0.0022807295   19.89102       18.223966      1.6670538     -2.215264       17753.842    
     30000   0.92459164     0.0023323615  -0.0047412835   19.889465      18.516447      1.3730186     -2.1403134      17777.896    
     31000   0.88356964     0.0023323615  -0.0072340449   19.772061      18.45996       1.3121009     -2.1490133      17863.244    
     32000   1.0068438      0.0023323615   0.0079023185   20.28969       18.794527      1.4951631     -1.8505935      17767.463    
     33000   0.94678034     0.0023323615  -0.0011325588   19.818761      18.412793      1.4059688     -2.0878755      17911.141    
     34000   0.95410489     0.0023323615  -0.00041168673  19.75639       18.339544      1.4168458     -2.1642344      17762.053    
     35000   0.97267967     0.0023323615  -0.00093123612  19.838392      18.393963      1.4444293     -2.1308192      17743.998    
     36000   0.98584473     0.0023323615  -0.0022938967   20.018599      18.55462       1.4639794     -1.9825042      17842.198    
     37000   0.88380461     0.0023323615  -0.0016868737   19.389657      18.077207      1.3124498     -2.3147778      17840.004    
     38000   0.90252043     0.0023323615   0.0022886519   19.541103      18.20086       1.3402428     -2.2910248      17834.111    
     39000   0.94312388     0.0023323615   0.0031126007   19.851059      18.45052       1.400539      -2.049889       17820.75     
     40000   1.0356622      0.0023323615  -0.0034009769   19.991107      18.453149      1.5379583     -2.0119863      17881.245    
     41000   0.99841181     0.0023323615  -0.0031220281   20.066766      18.584125      1.4826415     -1.9680721      17945.398    
     42000   0.98037482     0.0023323615   0.0071134928   19.792803      18.336947      1.4558566     -2.1016535      18128.629    
     43000   0.9877763      0.0023323615  -5.8703241e-05  20.105596      18.638749      1.4668478     -1.9256454      18157.502    
     44000   0.95032514     0.0023323615   0.0051556841   19.594507      18.183274      1.4112328     -2.2276002      18096.16     
     45000   0.96870041     0.0023323615  -0.0010173882   19.874649      18.436129      1.4385201     -2.1576475      18029.809    
     46000   1.0762203      0.0023323615   0.0029860479   20.18084       18.582653      1.5981872     -1.8564023      18096.773    
     47000   1.170389       0.0023323615   0.0013548361   20.13098       18.392952      1.7380277     -2.0493438      18133.181    
     48000   1.022939       0.0023323615   0.0037496301   20.199295      18.680231      1.5190645     -1.8711031      18058.799    
     49000   1.0651476      0.0023323615  -0.0033387319   20.088895      18.507151      1.5817442     -1.9270285      18160.532    
     50000   1.045091       0.0023323615   0.0021727607   19.764621      18.212661      1.5519601     -2.1961994      18092.076    
     51000   1.0261895      0.0023323615   0.0027353438   19.953624      18.429733      1.5238915     -2.0185612      18147.826    
     52000   0.87372607     0.0023323615  -0.0043597495   19.672032      18.374548      1.2974832     -2.1142527      18117.747    
     53000   1.0307727      0.0023323615   0.0010427903   20.040689      18.509991      1.5306974     -2.126702       18160.608    
     54000   1.2101351      0.0023323615   0.00083799273  20.038583      18.241532      1.7970506     -2.1880819      18129.321    
     55000   1.0668044      0.0023323615   0.0062702296   20.17681       18.592605      1.5842045     -1.9247407      17981.095    
     56000   1.1892603      0.0023323615   0.0011574515   20.365079      18.599028      1.7660516     -1.9174546      17986.866    
     57000   0.92747803     0.0023323615  -0.001825519    19.992066      18.614761      1.3773049     -1.9518512      17949.655    
     58000   1.0697988      0.0023323615   0.00029918585  19.668446      18.079795      1.5886512     -2.4185646      17892.484    
     59000   1.0855476      0.0023323615  -0.00078387106  19.813276      18.201237      1.6120382     -2.3156453      18005.416    
     60000   0.97661904     0.0023323615  -0.0038058478   19.600828      18.150549      1.4502793     -2.2720866      17911.704    
     61000   1.0577658      0.0023323615   0.0021419754   20.08273       18.511947      1.5707822     -1.9444598      17768.873    
     62000   1.0043142      0.0023323615   0.0048932131   19.974177      18.48277       1.4914066     -2.0043913      17771.971    
     63000   0.99370715     0.0023323615   7.0231315e-05  20.177411      18.701756      1.4756551     -1.7645575      18015.721    
     64000   0.86236455     0.0023323615  -0.0014538963   19.987539      18.706927      1.2806114     -1.8578251      17939.46     
     65000   0.916976       0.0023323615  -0.0031700282   20.031648      18.669939      1.3617094     -1.8752169      17956.213    
     66000   1.0580672      0.0023323615   0.0005311245   20.000426      18.429197      1.5712297     -2.1129649      17854.441    
     67000   1.1761807      0.0023323615  -0.0061371976   20.51407       18.767441      1.7466284     -1.8276006      18049.525    
     68000   0.92949113     0.0023323615   0.0022930739   20.063468      18.683174      1.3802943     -1.8921449      17928.859    
     69000   0.94730193     0.0023323615  -0.001270476    19.939694      18.53295       1.4067434     -2.0671476      17793.727    
     70000   0.8939127      0.0023323615   0.0029693991   19.774517      18.447057      1.3274604     -1.9977175      17967.701    
     71000   0.92369307     0.0023323615  -0.0025457662   19.792406      18.420722      1.3716842     -2.0102817      18006.26     
     72000   0.9259355      0.0023323615  -9.2325507e-05  20.039161      18.664146      1.3750142     -1.8677677      18033.731    
     73000   1.0057677      0.0023323615  -0.00028764955  19.899574      18.406009      1.4935651     -2.1299423      18187.041    
     74000   0.94420611     0.0023323615  -0.0032366646   20.06266       18.660514      1.4021461     -1.9732756      18184.595    
     75000   0.8512585      0.0023323615   0.0020475995   19.646378      18.382259      1.2641189     -2.1892643      18061.463    
     76000   1.0138828      0.0023323615  -0.003119612    20.107982      18.602366      1.505616      -1.9140364      17986.37     
     77000   1.0640756      0.0023323615  -0.00059855156  20.162926      18.582773      1.5801523     -1.9387245      17956.417    
     78000   0.86695523     0.0023323615  -0.0029989198   19.666743      18.379315      1.2874285     -2.0972271      17836.711    
     79000   1.0504562      0.0023323615   0.0028663347   19.969212      18.409284      1.5599274     -2.0616027      17741.601    
     80000   1.0311616      0.0023323615  -0.0014717025   19.856458      18.325183      1.5312749     -2.1296406      17751.578    
     81000   0.89042416     0.0023323615  -0.0013242111   19.637302      18.315022      1.3222799     -2.1496783      17875.648    
     82000   0.97262677     0.0023323615  -0.0024185166   19.956417      18.512066      1.4443508     -2.0587629      17905.971    
     83000   0.96263324     0.0023323615   0.0050717185   19.626226      18.196716      1.4295104     -2.2211836      17620.955    
     84000   0.9812326      0.0023323615   0.0014859351   19.948145      18.491015      1.4571304     -2.0528846      17847.702    
     85000   1.0603339      0.0023323615  -0.00083561232  20.073671      18.499075      1.5745958     -2.1004814      17978.682    
     86000   1.1285811      0.0023323615  -0.0036863203   20.187021      18.511078      1.675943      -2.0381675      17996.174    
     87000   0.93864216     0.0023323615  -0.0029369355   20.076774      18.682891      1.3938836     -1.8583528      18001.191    
     88000   1.0708319      0.0023323615   0.00012503353  20.243237      18.653052      1.5901853     -2.0458271      17844.773    
     89000   1.0239312      0.0023323615   0.00074585068  20.028784      18.508246      1.5205378     -1.9379788      17902.93     
     90000   0.96309248     0.0023323615  -0.00013957468  20.203402      18.773209      1.4301923     -1.7800342      17955.877    
     91000   1.0237347      0.0023323615   0.0036599704   19.940724      18.420478      1.520246      -2.1409675      17902.615    
     92000   0.96956882     0.0023323615   0.0033294602   20.024568      18.584758      1.4398097     -2.0396977      17829.45     
     93000   0.906932       0.0023323615   0.0032261012   19.59579       18.248996      1.346794      -2.1989026      17963.028    
     94000   0.91243459     0.0023323615  -0.0026408066   19.900816      18.54585       1.3549654     -1.9800952      17901.083    
     95000   0.99612745     0.0023323615  -0.0016817015   19.822172      18.342923      1.4792493     -2.1075101      18127.302    
     96000   1.1133975      0.0023323615  -0.0022964535   20.135581      18.482185      1.6533953     -1.9271819      18155.303    
     97000   0.97768558     0.0023323615  -0.0014715256   19.848798      18.396935      1.4518631     -2.0973099      18099.628    
     98000   0.98063978     0.0023323615  -0.0025536265   19.97611       18.51986       1.4562501     -2.053476       18243.931    
     99000   0.8993352      0.0023323615   0.0014261161   19.743917      18.408404      1.3355128     -2.0981403      18296.279    
    100000   1.2282085      0.0023323615   0.00023063962  20.385067      18.561177      1.8238897     -1.967208       18330.299    
    101000   0.94354149     0.0023323615  -0.00056891748  20.033575      18.632416      1.4011591     -1.869665       18002.668    
    102000   1.0178666      0.0023323615   0.0069670921   20.219738      18.708206      1.5115319     -1.9171072      18018.421    
    103000   1.1498874      0.0023323615  -0.0010337583   19.952832      18.245249      1.7075827     -2.2412469      17943.982    
    104000   0.89699728     0.0023323615  -0.0010177977   19.970696      18.638655      1.332041      -1.8946888      17897.351    
    105000   1.0671359      0.0023323615  -0.0026411058   20.116471      18.531775      1.5846968     -2.0768766      17933.062    
    106000   0.9828187      0.0023323615  -0.0056419375   20.045159      18.585673      1.4594858     -1.9288011      17950.184    
    107000   1.0815941      0.0023323615  -0.00095585485  20.149792      18.543625      1.6061672     -1.960603       17927.773    
    108000   0.92114909     0.0023323615   0.002974979    19.80658       18.438674      1.3679064     -2.0799551      18067.05     
    109000   1.0012372      0.0023323615   0.00028479731  19.992513      18.505675      1.4868372     -2.0079484      17859.943    
    110000   1.1146201      0.0023323615   0.0019983234   20.248501      18.593291      1.6552108     -1.8511658      17909.351    
    111000   0.9112292      0.0023323615   0.0069005795   19.965644      18.612469      1.3531754     -1.8888623      17916.099    
    112000   0.97815359     0.0023323615   0.0022826266   20.10281       18.650252      1.4525581     -1.9244531      18059.374    
    113000   1.1691019      0.0023323615  -0.00042993254  20.38762       18.651503      1.7361163     -1.9795149      17981.743    
    114000   0.95636093     0.0023323615  -0.0045002958   20.202681      18.782485      1.420196      -1.7996844      17909.547    
    115000   1.0543959      0.0023323615   0.00037548354  19.930345      18.364567      1.565778      -2.053374       17964.15     
    116000   0.99192938     0.0023323615   0.0019330823   19.927863      18.454847      1.4730151     -1.9596433      18108.241    
    117000   1.082647       0.0023323615  -0.0018531936   20.391154      18.783423      1.6077308     -1.7394319      18072.065    
    118000   1.1087079      0.0023323615   0.0033258878   20.229589      18.583158      1.6464312     -2.0188395      17894.238    
    119000   1.0467192      0.0023323615   0.0031947988   19.822865      18.268487      1.554378      -2.2933605      17896.352    
    120000   0.93958786     0.0023323615  -0.0041110096   20.074839      18.679551      1.395288      -1.8352924      17894.723    
    121000   0.92707756     0.0023323615   0.0012557002   19.950534      18.573823      1.3767102     -1.83052        17959.725    
    122000   0.94228544     0.0023323615  -0.0020952268   20.103833      18.704539      1.3992939     -1.8229297      17983        
    123000   0.97840391     0.0023323615  -0.0007531009   19.866566      18.413636      1.4529298     -2.1137874      17808.353    
    124000   0.92882045     0.0023323615   0.00047429536  19.857256      18.477958      1.3792984     -1.9530367      17759.285    
    125000   0.96446521     0.0023323615   0.0022824377   19.838963      18.406732      1.4322308     -2.0203509      17768.687    
    126000   1.0658635      0.0023323615  -0.003844901    20.079371      18.496564      1.5828073     -2.0518842      17821.167    
    127000   1.0370196      0.0023323615  -0.0019360413   19.908262      18.368288      1.539974      -2.0838659      17817.381    
    128000   0.83709964     0.0023323615   0.0015159889   19.633672      18.390579      1.243093      -2.0180202      17749.169    
    129000   0.84633401     0.0023323615  -0.0048769289   19.596503      18.339697      1.256806      -2.0795638      17897.559    
    130000   0.82718615     0.0023323615   0.0012655682   19.885332      18.656961      1.2283714     -1.9718555      17952.774    
    131000   1.1633575      0.0023323615   0.0030236665   20.046541      18.318955      1.7275859     -2.1915763      17825.74     
    132000   1.0988672      0.0023323615   9.5027716e-05  19.9979        18.366082      1.6318179     -2.1831504      17726.454    
    133000   0.88041088     0.0023323615  -0.002102493    19.782006      18.474596      1.3074102     -2.2920104      17777.428    
    134000   1.016587       0.0023323615   0.0010940606   19.980424      18.470792      1.5096317     -2.0944463      17855.639    
    135000   1.0094052      0.0023323615  -0.00020477653  19.848768      18.349801      1.4989667     -2.0395745      17915.018    
    136000   1.1134467      0.0023323615   0.0010370654   20.083517      18.430049      1.6534684     -1.9891892      17918.022    
    137000   1.0292366      0.0023323615  -0.0034527002   19.961087      18.43267       1.5284163     -2.1616475      17880.8      
    138000   0.9561434      0.0023323615  -0.0013564048   19.837588      18.417715      1.4198729     -2.1846021      17791.662    
    139000   1.1206128      0.0023323615  -0.0023514591   19.969287      18.305177      1.6641099     -2.1366627      17712.293    
    140000   0.98432646     0.0023323615  -0.0016920762   20.034295      18.57257       1.4617248     -1.8791629      17875.888    
    141000   1.0870469      0.0023323615   0.0035786043   20.003225      18.38896       1.6142647     -2.0174078      18116.451    
    142000   1.2860736      0.0023323615   0.0010526485   20.554142      18.644322      1.9098192     -2.0086925      17815.355    
    143000   0.92530422     0.0023323615   0.0014709572   19.734866      18.360789      1.3740768     -2.1421668      17677.933    
    144000   0.92603842     0.0023323615  -0.0040835391   20.189506      18.814339      1.3751671     -1.7487776      17836.928    
    145000   0.97111235     0.0023323615   0.0014612237   19.942529      18.500428      1.4421018     -2.1214509      17920.895    
    146000   0.94508754     0.0023323615   0.00079768952  19.788928      18.385473      1.403455      -2.0928576      17959.224    
    147000   1.0466439      0.0023323615   0.0025961918   19.805348      18.251082      1.5542662     -2.1747275      17923.189    
    148000   0.96716224     0.0023323615   0.0042217371   20.057982      18.621746      1.4362359     -1.8842898      18075.344    
    149000   1.2003453      0.0023323615   0.0017100018   20.508661      18.726148      1.7825128     -1.8320962      18214.421    
    150000   1.0053879      0.0023323615  -0.00026319866  19.92092       18.427918      1.4930011     -2.1368787      18073.769    
    151000   0.95822978     0.0023323615  -0.0027733452   20.06153       18.638559      1.4229712     -2.0398834      18104.362    
    152000   1.0294902      0.0023323615  -0.005391787    19.999682      18.470889      1.528793      -2.1890559      18135.619    
    153000   0.99717863     0.0023323615  -0.0007675609   19.913608      18.432797      1.4808103     -2.0383231      17974.658    
    154000   1.106719       0.0023323615   0.0014536909   20.112814      18.469336      1.6434778     -2.094953       17967.419    
    155000   0.903936       0.0023323615   0.0026715245   19.481536      18.139191      1.342345      -2.3359688      18151.889    
    156000   0.9432798      0.0023323615   0.0015324868   19.845686      18.444915      1.4007705     -2.1191697      18112.743    
    157000   1.023579       0.0023323615   0.0039494983   19.804517      18.284502      1.5200149     -2.2080615      18034.419    
    158000   0.97587432     0.0023323615  -0.0022744008   19.864728      18.415555      1.4491734     -2.1209346      17970.9      
    159000   0.92061182     0.0023323615   0.0026878514   19.851015      18.483907      1.3671086     -2.1377279      18073.262    
    160000   1.1433369      0.0023323615   0.0034490778   19.925417      18.227562      1.6978553     -2.1275661      18099.451    
    161000   1.0424218      0.0023323615   0.0023214198   19.879886      18.331889      1.5479964     -2.1506849      18131.899    
    162000   1.0398187      0.0023323615   0.0031653756   20.168039      18.623908      1.5441307     -1.9163906      18115.952    
    163000   0.90844419     0.0023323615   0.0031044141   19.780598      18.431558      1.3490396     -2.0453729      18209.766    
    164000   1.154146       0.0023323615  -0.00057066741  20.014523      18.300616      1.7139068     -2.2220932      18048.333    
    165000   1.0507564      0.0023323615   0.0054724827   20.285927      18.725553      1.5603732     -1.819448       17962.537    
    166000   1.0345626      0.0023323615   0.00218526     19.985133      18.448807      1.5363255     -2.0692775      18010.075    
    167000   1.050029       0.0023323615   0.0012844166   19.780415      18.221122      1.5592931     -2.3016867      17961.597    
    168000   0.97253515     0.0023323615  -0.0019828711   20.125141      18.680926      1.4442147     -1.9732846      17963.93     
    169000   0.90690727     0.0023323615   0.0024394926   19.711097      18.36434       1.3467573     -2.1837016      17803.668    
    170000   1.0649635      0.0023323615  -0.0054150594   19.948195      18.366724      1.5814708     -2.1400626      17931.181    
    171000   0.89666549     0.0023323615   0.0016154754   19.820113      18.488564      1.3315482     -1.9928872      17916.825    
    172000   0.99770649     0.0023323615   0.0019059406   20.070141      18.588547      1.4815941     -2.1069859      17922.571    
    173000   0.94337215     0.0023323615  -0.00079668012  19.502643      18.101735      1.4009076     -2.3572166      17842.052    
    174000   0.96048765     0.0023323615   0.00037535793  19.576819      18.150494      1.4263242     -2.3254367      17907.124    
    175000   0.90191614     0.0023323615  -0.003413108    19.879446      18.5401        1.3393455     -1.9916495      17892.487    
    176000   1.0626519      0.0023323615  -0.0016896409   20.010486      18.432448      1.578038      -2.0570491      17903.835    
    177000   1.0961347      0.0023323615  -0.00513631     20.452022      18.824262      1.62776       -1.7838574      17923.061    
    178000   1.1506517      0.0023323615  -0.0027687532   20.186071      18.477353      1.7087178     -1.9997241      18005.565    
    179000   1.0156613      0.0023323615  -0.00095940319  20.003476      18.495219      1.508257      -1.9904273      18074.489    
    180000   0.92989731     0.0023323615  -0.000678674    19.649338      18.268441      1.3808975     -2.1861765      18111.382    
    181000   1.0540366      0.0023323615  -8.5324619e-05  20.079247      18.514003      1.5652443     -1.9388718      18041.626    
    182000   1.1029088      0.0023323615  -0.00059714824  20.179755      18.541935      1.6378196     -1.9699245      18182.574    
    183000   1.0548565      0.0023323615   0.0052998794   19.868643      18.302181      1.5664618     -2.1665901      18156.019    
    184000   0.99680823     0.0023323615   0.0026639111   19.925451      18.445191      1.4802602     -1.981357       18049.009    
    185000   0.95002694     0.0023323615  -0.0039453692   19.89288       18.48209       1.41079       -1.977439       17872.124    
    186000   0.991083       0.0023323615  -0.0026731345   19.896726      18.424967      1.4717583     -2.1226639      17996.219    
    187000   1.0942559      0.0023323615  -0.0034588085   19.981816      18.356846      1.62497       -2.091549       17983.681    
    188000   1.1001898      0.0023323615  -0.00099056697  19.930913      18.297131      1.6337818     -2.0749225      17979.394    
    189000   1.0267625      0.0023323615   0.0034449471   20.017044      18.492301      1.5247424     -1.9814802      17998.643    
    190000   0.95599249     0.0023323615  -0.004133144    20.185846      18.766197      1.4196488     -1.8287113      18086.706    
    191000   0.98206883     0.0023323615   0.0016397462   19.765586      18.307214      1.4583722     -2.1983969      18047.09     
    192000   0.9555013      0.0023323615  -0.0014078587   19.775866      18.356946      1.4189194     -2.1409006      18083.996    
    193000   0.97736828     0.0023323615  -0.00055966312  20.101236      18.649844      1.4513919     -1.9275853      17910.302    
    194000   0.86266423     0.0023323615   0.00052178678  19.700146      18.41909       1.2810564     -2.1454853      18057.734    
    195000   1.1893874      0.0023323615   0.0033749737   20.219098      18.452858      1.7662403     -2.020171       18054.262    
    196000   0.98083957     0.0023323615  -0.00034651866  19.890303      18.433756      1.4565468     -2.0394149      17990.381    
    197000   0.91480625     0.0023323615  -0.0015523711   19.599142      18.240655      1.3584873     -2.2389878      18124.916    
    198000   0.857331       0.0023323615  -0.0023440132   19.843742      18.570605      1.2731365     -1.8549941      17998.929    
    199000   1.0189941      0.0023323615  -0.0031563439   19.671583      18.158377      1.5132063     -2.3035713      17898.759    
    200000   0.99507742     0.0023323615  -0.00072740136  20.076752      18.599062      1.47769       -2.0471933      17949.3      
    201000   0.94190033     0.0023323615  -0.002195805    19.609768      18.211046      1.398722      -2.212468       18029.311    
    202000   0.9943772      0.0023323615   0.0017618805   20.091121      18.614471      1.4766501     -1.9268456      18024.834    
    203000   1.0585544      0.0023323615   0.00064182324  19.825474      18.25352       1.5719533     -2.120271       17990.847    
    204000   1.0137812      0.0023323615  -0.0020811774   19.95637       18.450905      1.5054651     -1.9984031      18053.201    
    205000   1.0723342      0.0023323615   0.0010070651   20.17742       18.585004      1.5924163     -1.9323556      18093.962    
    206000   1.0472965      0.0023323615  -0.00013531151  20.073713      18.518478      1.5552354     -2.1502688      18132.393    
    207000   1.0205856      0.0023323615  -0.0036211545   20.176997      18.661427      1.5155696     -1.9155913      17947.357    
    208000   0.94813201     0.0023323615  -0.00070871606  19.723516      18.31554       1.407976      -2.30878        18002.815    
    209000   1.0035663      0.0023323615  -0.00034468291  19.748792      18.258496      1.490296      -2.2546133      18013.267    
    210000   0.81325272     0.0023323615  -0.00055639817  19.892158      18.684478      1.2076803     -1.8872267      17943.817    
    211000   0.99089502     0.0023323615  -0.0011970163   19.874998      18.403519      1.4714791     -2.2233803      17920.609    
    212000   0.86284134     0.0023323615   0.00035010827  19.568774      18.287455      1.2813194     -2.265371       17890.232    
    213000   0.87265572     0.0023323615  -0.0012656468   20.055169      18.759275      1.2958937     -1.7712722      18083.845    
    214000   0.99741135     0.0023323615   0.002165932    19.848139      18.366984      1.4811558     -2.0883389      17979.599    
    215000   1.0380291      0.0023323615  -0.0020689041   19.701068      18.159595      1.5414733     -2.274387       17909.695    
    216000   0.99164475     0.0023323615  -0.0014730157   19.796603      18.32401       1.4725924     -2.1786773      18105.351    
    217000   1.1040537      0.0023323615  -0.0005862658   19.834773      18.195253      1.6395198     -2.2675058      18227.656    
    218000   1.0132438      0.0023323615  -0.0019015183   19.952875      18.448208      1.5046671     -1.9839714      18207.284    
    219000   0.98672652     0.0023323615   0.00026685545  19.512448      18.047159      1.4652889     -2.3907659      17996.53     
    220000   0.87420922     0.0023323615  -0.0013728005   19.639474      18.341273      1.2982007     -2.1949643      17774.287    
    221000   0.93873048     0.0023323615   0.0020064645   19.472278      18.078263      1.3940148     -2.2630513      17775.5      
    222000   1.0595211      0.0023323615   0.00079507097  20.047533      18.474144      1.5733889     -1.9624493      17967.481    
    223000   1.152938       0.0023323615   0.0025965427   20.097991      18.385878      1.7121129     -2.0876433      17897.951    
    224000   1.0906658      0.0023323615  -0.002223223    19.938959      18.31932       1.6196386     -2.209389       17967.403    
    225000   1.03144        0.0023323615  -0.00037052645  20.286419      18.75473       1.5316884     -1.8104061      17970.263    
    226000   1.0308783      0.0023323615  -0.0018091612   19.850839      18.319985      1.5308543     -2.1233773      18008.288    
    227000   0.90857868     0.0023323615   0.0018035825   20.062513      18.713274      1.3492393     -1.8564922      17967.976    
    228000   1.0211804      0.0023323615  -0.0011794301   20.112189      18.595736      1.5164529     -2.0839303      18058.42     
    229000   1.0583914      0.0023323615   0.0026490279   19.959957      18.388246      1.5717112     -2.1204161      17957.089    
    230000   0.94089171     0.0023323615   0.004429726    19.767117      18.369893      1.3972242     -2.1187282      17916.008    
    231000   0.95364859     0.0023323615   0.00070572824  19.957572      18.541404      1.4161682     -1.9630808      17999.393    
    232000   1.0074325      0.0023323615   0.0023217854   19.900924      18.404886      1.4960373     -2.1120176      18046.868    
    233000   0.95794065     0.0023323615   0.00013416675  19.945639      18.523097      1.4225419     -2.0340568      17980.376    
    234000   0.9860782      0.0023323615  -0.0052380224   20.056561      18.592235      1.4643261     -1.9287821      18029.571    
    235000   0.93203677     0.0023323615  -0.0031766162   19.957243      18.573169      1.3840746     -1.9381043      18146.615    
    236000   0.99765025     0.0023323615   0.0032322713   19.916721      18.435211      1.4815106     -2.0409897      18129.077    
    237000   1.0596284      0.0023323615   0.0010973145   20.138218      18.56467       1.5735481     -1.9513593      17966.33     
    238000   0.88117131     0.0023323615  -0.0029231972   19.848301      18.539762      1.3085394     -1.9611817      18068.888    
    239000   1.0634668      0.0023323615   0.0022418052   20.125073      18.545825      1.5792483     -2.1076972      18086.172    
    240000   0.95348114     0.0023323615  -0.0010080329   19.920603      18.504684      1.4159195     -2.1392485      17996.93     
    241000   0.94813354     0.0023323615  -0.001000683    20.233133      18.825154      1.4079783     -1.8144162      18079.171    
    242000   1.1290943      0.0023323615  -0.00065332551  20.064371      18.387666      1.676705      -2.1361912      18107.817    
    243000   0.97836539     0.0023323615   0.0022533438   19.989158      18.536286      1.4528726     -1.9640512      18031.919    
    244000   0.93117409     0.0023323615   0.0013267286   19.895208      18.512415      1.3827935     -2.0328853      17949.487    
    245000   1.1458045      0.0023323615  -0.00087865752  20.118428      18.416908      1.7015196     -2.2057337      18128.596    
    246000   0.99927469     0.0023323615   0.0033165906   19.71402       18.230097      1.4839229     -2.3160918      18058.044    
    247000   1.0995092      0.0023323615  -0.0018613636   19.928624      18.295853      1.6327711     -2.1497535      18068.995    
    248000   1.0522159      0.0023323615   0.0053338848   20.1207        18.558159      1.5625406     -1.910785       17883.62     
    249000   0.99980017     0.0023323615   0.00088027163  20.04196       18.557257      1.4847032     -1.8688389      18027.728    
    250000   1.0057195      0.0023323615   0.0004587663   20.047818      18.554324      1.4934934     -2.0467302      17909.306    
    251000   0.97259893     0.0023323615  -0.0030172678   19.875159      18.430849      1.4443094     -2.1678977      17912.774    
    252000   1.0944794      0.0023323615  -0.0001036465   20.241209      18.615907      1.6253019     -1.86113        17851.622    
    253000   1.0213645      0.0023323615   0.000879176    19.73411       18.217384      1.5167263     -2.2639581      17893.641    
    254000   1.0333838      0.0023323615   0.0025837283   20.064817      18.530242      1.5345749     -2.0267968      17764.857    
    255000   1.0120095      0.0023323615  -0.0013262058   19.890474      18.38764       1.502834      -2.0810642      17701.845    
    256000   0.9750334      0.0023323615  -0.0019949733   19.925522      18.477597      1.4479246     -2.0345239      17908.095    
    257000   0.98534334     0.0023323615   0.0020918763   20.035885      18.57265       1.4632349     -1.9571839      17860.825    
    258000   0.95012011     0.0023323615   0.0017640601   20.022149      18.611221      1.4109284     -1.9527576      17812.764    
    259000   0.87602101     0.0023323615   0.0029881532   19.816386      18.515494      1.3008912     -1.9496886      17754.969    
    260000   1.0679843      0.0023323615  -0.0027504636   19.866064      18.280107      1.5859567     -2.2090832      17957.163    
    261000   1.0362271      0.0023323615   0.0015810513   19.753816      18.215019      1.5387973     -2.3654107      18027.956    
    262000   0.84715        0.0023323615  -0.0048030069   19.886379      18.628361      1.2580178     -1.9146804      18010.845    
    263000   0.91485725     0.0023323615  -0.0024888418   19.999938      18.641375      1.358563      -1.7613025      17848.835    
    264000   1.0261305      0.0023323615   0.0039480346   20.210427      18.686623      1.5238038     -1.8476725      17731.701    
    265000   1.1251457      0.0023323615   0.00014434789  20.136208      18.465366      1.6708414     -2.0383404      17779.679    
    266000   0.89895143     0.0023323615  -0.00052054335  19.748639      18.413696      1.3349429     -2.0926031      17810.294    
    267000   1.1488419      0.0023323615  -0.0015961375   19.867473      18.161443      1.7060302     -2.2287071      17910.643    
    268000   0.95269482     0.0023323615   0.0012856019   19.925323      18.510571      1.4147518     -2.0368225      17842.221    
    269000   0.9041693      0.0023323615   0.0011192394   20.065719      18.723027      1.3426914     -2.0180807      17929.6      
    270000   1.0640838      0.0023323615   0.00029700812  19.885584      18.305419      1.5801644     -2.1615178      17648.236    
    271000   0.83880419     0.0023323615   0.0024003535   19.509103      18.263479      1.2456242     -2.252436       17695.948    
    272000   0.916429       0.0023323615   0.00020594496  19.779468      18.418571      1.3608971     -2.0944785      17559.966    
    273000   1.1620349      0.0023323615  -0.0018332838   20.112724      18.387102      1.7256219     -2.0838473      17513.361    
    274000   0.96856        0.0023323615   0.0016323121   19.717132      18.27882       1.4383116     -2.1891505      17534.756    
    275000   0.98682492     0.0023323615   0.00065875798  20.169605      18.70417       1.465435      -1.8369214      17565.352    
    276000   0.91348778     0.0023323615  -0.00043871362  19.850975      18.494446      1.3565294     -2.0974725      17468.29     
    277000   0.96909659     0.0023323615  -0.0051917822   19.989757      18.550648      1.4391084     -2.0383363      17610.677    
    278000   1.1614587      0.0023323615  -2.405031e-05   20.325571      18.600805      1.7247662     -1.8720763      17818.504    
    279000   0.94867463     0.0023323615  -0.0020803112   19.587618      18.178837      1.4087818     -2.3291189      17912.803    
    280000   0.88304941     0.0023323615   0.0016898308   19.552989      18.241661      1.3113284     -2.2589654      17750.884    
    281000   0.9285532      0.0023323615   0.00041853137  20.011684      18.632782      1.3789015     -1.9341736      17821.768    
    282000   0.97827325     0.0023323615  -0.002354727    19.879542      18.426806      1.4527358     -2.1723178      17771.11     
    283000   1.048296       0.0023323615  -0.0014026485   20.017903      18.461183      1.5567195     -1.9210309      17899.822    
    284000   0.94334078     0.0023323615  -0.00070055169  19.890154      18.489293      1.4008611     -2.0253008      17767.074    
    285000   0.91163356     0.0023323615   0.00035303631  19.465775      18.111999      1.3537758     -2.3506371      17722.275    
    286000   1.0893808      0.0023323615  -0.00086358078  19.826017      18.208287      1.6177304     -2.1250352      17631.311    
    287000   1.0503345      0.0023323615   0.0046168884   19.705957      18.14621       1.5597468     -2.3477332      17697.162    
    288000   1.034811       0.0023323615  -0.00087356407  19.770593      18.233898      1.5366943     -2.2955404      17844.291    
    289000   1.081526       0.0023323615  -0.0046245609   19.975096      18.369029      1.6060661     -2.2331147      17836.953    
    290000   1.0008863      0.0023323615   0.0046654433   19.922255      18.435939      1.4863161     -2.1412436      17681.591    
    291000   0.93347815     0.0023323615   1.0405742e-05  19.768977      18.382761      1.386215      -2.0324169      17813.772    
    292000   1.0291407      0.0023323615   0.0011530641   20.078063      18.549789      1.528274      -2.0223096      17838.094    
    293000   0.8712517      0.0023323615   0.004608468    20.114426      18.820617      1.2938088     -1.7741698      17817.833    
    294000   0.91119161     0.0023323615   0.0022282353   19.69084       18.337721      1.3531195     -2.1007706      17664.277    
    295000   1.1603632      0.0023323615   0.0064168524   20.204736      18.481596      1.7231393     -2.0656525      17673.275    
    296000   1.0697078      0.0023323615  -0.000579911    20.120212      18.531696      1.588516      -1.954561       17742.443    
    297000   0.95207603     0.0023323615  -0.00034114461  19.708119      18.294286      1.4138329     -2.260235       17774.484    
    298000   0.95458612     0.0023323615  -0.0022719145   19.862649      18.445089      1.4175604     -2.0398867      17814.494    
    299000   0.88286169     0.0023323615  -0.0021759835   19.930807      18.619758      1.3110496     -1.8372982      17807.212    
    300000   0.95530656     0.0023323615   0.0017398401   19.915749      18.497119      1.4186302     -1.9391233      17821.504    
    301000   0.92163517     0.0023323615  -0.0011230783   20.030078      18.661449      1.3686282     -1.8580675      17622.564    
    302000   0.90313976     0.0023323615   0.001552474    19.610497      18.269334      1.3411625     -2.2220785      17533.915    
    303000   1.003426       0.0023323615  -0.0021136856   20.11192       18.621832      1.4900876     -1.8272957      17552.381    
    304000   0.98026043     0.0023323615   0.0020369907   20.014027      18.55834       1.4556867     -1.9217466      17822.793    
    305000   1.0252529      0.0023323615   0.0024969658   19.856464      18.333963      1.5225005     -2.0839557      17815.037    
    306000   0.91280468     0.0023323615  -0.0022988728   19.654935      18.29942       1.3555149     -2.0889519      17780.113    
    307000   1.0103929      0.0023323615   0.0014926538   20.212762      18.712329      1.5004335     -1.7830945      17871.826    
    308000   1.0440547      0.0023323615   0.001860811    20.503961      18.95354       1.5504212     -1.726636       17671.129    
    309000   1.0667598      0.0023323615  -0.0015164026   20.194702      18.610563      1.5841383     -1.9384675      17763.39     
    310000   1.0676698      0.0023323615   0.0013106383   19.980106      18.394616      1.5854897     -2.1754056      17567.501    
    311000   0.99644983     0.0023323615  -0.001530675    19.760319      18.280591      1.479728      -2.3361108      17550.119    
    312000   1.0752787      0.0023323615  -0.00082832495  19.934761      18.337972      1.5967888     -2.1228176      17619.322    
    313000   0.96264712     0.0023323615   0.0035460465   19.752664      18.323133      1.429531      -2.2076885      17566.523    
    314000   0.98429039     0.0023323615   0.00094889823  19.941018      18.479347      1.4616712     -2.0799285      17739.737    
    315000   1.0450093      0.0023323615   0.00048439241  20.10366       18.551822      1.5518388     -1.9845422      17534.244    
    316000   0.99537573     0.0023323615   0.00098203218  19.653265      18.175132      1.478133      -2.2694517      17594.556    
    317000   0.92223161     0.0023323615   0.00080300099  19.581682      18.212169      1.3695139     -2.265774       17656.515    
    318000   1.0500311      0.0023323615   0.0034323794   20.055003      18.495707      1.5592962     -2.0266463      17653.861    
    319000   0.95720706     0.0023323615  -0.0043619852   19.911864      18.490412      1.4214525     -1.9753874      17600.904    
    320000   1.0886507      0.0023323615   0.00069261313  19.98278       18.366134      1.6166462     -2.0977221      17755.582    
    321000   0.99984993     0.0023323615   0.0020696856   19.898498      18.413721      1.4847771     -2.2630043      17717.814    
    322000   0.85339574     0.0023323615  -0.00056336234  19.233927      17.966634      1.2672927     -2.6373949      17771.009    
    323000   1.0332375      0.0023323615   0.0035149539   20.029221      18.494864      1.5343577     -2.0444107      17701.383    
    324000   0.99220969     0.0023323615   0.0081176754   20.121158      18.647726      1.4734314     -1.9217431      17640.768    
    325000   0.97788253     0.0023323615   0.0072151036   19.782717      18.330562      1.4521556     -2.2298471      17601.77     
    326000   0.97008945     0.0023323615  -0.00017056281  19.881724      18.441141      1.4405828     -2.1903706      17674.43     
    327000   0.92736566     0.0023323615  -0.00074331306  20.071115      18.693977      1.377138      -1.9037715      17667.585    
    328000   1.1455995      0.0023323615   0.0022952455   20.120818      18.419603      1.7012152     -2.1538379      17680.04     
    329000   0.77703702     0.0023323615  -0.0010745271   19.466607      18.312707      1.1539        -2.2330082      17632.056    
    330000   1.0600858      0.0023323615   0.0029452415   19.856516      18.282288      1.5742274     -2.2270396      17603.357    
    331000   1.070636       0.0023323615  -0.00080999532  20.14765       18.557756      1.5898944     -1.9484446      17541.566    
    332000   0.91614792     0.0023323615  -0.0023411234   19.884008      18.523528      1.3604797     -1.976366       17631.648    
    333000   1.0053513      0.0023323615   0.00056959973  20.051777      18.558831      1.4929467     -1.9215571      17710.014    
    334000   0.97133067     0.0023323615   0.0022842621   19.676239      18.233813      1.4424261     -2.2436472      17635.04     
    335000   1.1343372      0.0023323615  -0.0027961811   20.033653      18.349163      1.6844907     -2.3778829      17497.856    
    336000   1.0373739      0.0023323615   0.0012362685   20.007308      18.466808      1.5405002     -2.1553598      17624.864    
    337000   1.0337432      0.0023323615  -0.0025913678   20.106553      18.571444      1.5351087     -1.961902       17603.043    
    338000   0.98763189     0.0023323615   0.00020805827  19.836539      18.369905      1.4666334     -2.1465921      17617.839    
    339000   0.98813512     0.0023323615  -0.0031938254   19.912636      18.445255      1.4673807     -1.9933693      17608.167    
    340000   1.041899       0.0023323615  -0.0035431312   19.9355        18.38828       1.5472201     -2.0550968      17667.378    
    341000   0.97436213     0.0023323615  -0.0020431722   19.625309      18.178381      1.4469278     -2.3022233      17368.585    
    342000   0.88153484     0.0023323615   0.0010917699   19.62259       18.313511      1.3090792     -2.1996396      17672.302    
    343000   1.0970349      0.0023323615   0.0043617906   20.085102      18.456005      1.6290969     -2.0261062      17600.699    
    344000   1.1236666      0.0023323615   0.0017856146   19.936429      18.267784      1.6686448     -2.1414177      17628.63     
    345000   0.85297699     0.0023323615  -0.0036868011   19.751251      18.48458       1.2666708     -2.0231754      17503.873    
    346000   1.1364087      0.0023323615   5.29142e-05    19.927601      18.240034      1.6875669     -2.1962552      17625.2      
    347000   0.93917307     0.0023323615   0.0017552535   19.871481      18.476809      1.394672      -2.0656811      17593.936    
    348000   1.0452735      0.0023323615   0.0013700648   20.267738      18.715507      1.5522312     -1.9652861      17603.825    
    349000   0.97367085     0.0023323615   0.0005698729   19.986295      18.540393      1.4459012     -1.9697411      17799.156    
    350000   0.99295626     0.0023323615  -0.0012215093   19.854184      18.379644      1.47454       -2.2130423      17727.658    
    351000   1.1938185      0.0023323615   0.00056259109  20.358694      18.585874      1.7728204     -2.0072787      17719.723    
    352000   1.0419169      0.0023323615  -0.0025608049   20.230417      18.68317       1.5472466     -1.926308       17883.065    
    353000   0.99537299     0.0023323615   0.0037300234   19.974589      18.49646       1.4781289     -1.973515       17714.874    
    354000   0.8220036      0.0023323615  -0.00067763639  19.720501      18.499826      1.2206753     -1.9947081      17678.265    
    355000   1.0055633      0.0023323615   2.3463158e-05  19.906687      18.413426      1.4932615     -2.1370263      17703.405    
    356000   1.0022204      0.0023323615  -0.0024764685   20.110361      18.622064      1.4882973     -1.956668       17625.411    
    357000   0.8840349      0.0023323615   0.00061859902  19.795213      18.482421      1.3127918     -1.9658227      17707.259    
    358000   1.0389225      0.0023323615   0.0012291005   20.099923      18.557123      1.5427999     -1.9647405      17714.735    
    359000   1.0751538      0.0023323615  -0.0021986481   20.170833      18.57423       1.5966034     -1.999197       17610.279    
    360000   0.98278766     0.0023323615  -0.00022058066  19.729695      18.270256      1.4594397     -2.2122981      17518.208    
    361000   0.94708463     0.0023323615  -0.0013102548   19.842591      18.43617       1.4064207     -2.1553254      17499.341    
    362000   0.90664668     0.0023323615   0.0012073909   19.791677      18.445307      1.3463703     -2.1180337      17681.287    
    363000   1.1157192      0.0023323615   0.00056759497  20.069222      18.412379      1.656843      -2.0789075      17532.652    
    364000   0.95700373     0.0023323615   0.0066683156   19.972129      18.550979      1.4211505     -2.1363663      17507.242    
    365000   1.052461       0.0023323615  -0.0028880439   19.916372      18.353467      1.5629046     -2.0792763      17507.542    
    366000   0.91491592     0.0023323615  -0.0036153425   19.874452      18.515802      1.3586501     -2.0752805      17455.468    
    367000   0.99190185     0.0023323615  -0.0022915969   19.927083      18.454109      1.4729743     -2.0244052      17495.065    
    368000   1.0169893      0.0023323615   0.0011759802   20.158083      18.647853      1.5102291     -1.881438       17581.221    
    369000   0.9375551      0.0023323615  -0.00037689286  19.89774       18.505471      1.3922693     -1.9677493      17520.145    
    370000   0.99979267     0.0023323615  -0.0012316144   19.927312      18.44262       1.4846921     -2.0547618      17537.621    
    371000   1.0946687      0.0023323615  -0.0031152508   20.295669      18.670086      1.625583      -1.9775519      17552.783    
    372000   1.0210235      0.0023323615   0.0039899165   19.880506      18.364287      1.5162199     -2.1573101      17478.754    
    373000   0.87240296     0.0023323615  -0.0024982191   19.913223      18.617705      1.2955184     -1.8147327      17649.029    
    374000   0.94990059     0.0023323615  -0.00039188469  19.910783      18.50018       1.4106024     -1.8968396      17743.234    
    375000   1.0525279      0.0023323615  -0.00076740451  20.213779      18.650775      1.5630039     -1.8968526      17599.653    
    376000   1.0261152      0.0023323615  -0.00028904615  19.891069      18.367288      1.523781      -2.1749051      17452.593    
    377000   1.1425556      0.0023323615  -0.0022441825   20.103148      18.406453      1.696695      -2.2695862      17540.98     
    378000   1.1849303      0.0023323615  -0.0031592214   20.308663      18.549041      1.7596216     -1.9157521      17527.483    
    379000   0.87883595     0.0023323615   0.00023485964  19.669704      18.364633      1.3050714     -2.1569146      17645.29     
    380000   1.0427118      0.0023323615   0.0009177186   19.723688      18.175261      1.5484271     -2.2388724      17773.211    
    381000   0.98053212     0.0023323615   0.00018872179  19.804981      18.348891      1.4560902     -2.1386471      17641.146    
    382000   0.99949561     0.0023323615  -0.0029371015   19.829275      18.345024      1.484251      -2.0911151      17633.716    
    383000   1.2572231      0.0023323615  -0.0051626317   20.372131      18.505155      1.8669763     -2.0266822      17642.05     
    384000   0.95438546     0.0023323615   0.0030670483   19.647824      18.230562      1.4172624     -2.2856469      17527.702    
    385000   0.92219884     0.0023323615   0.00035818474  19.863309      18.493844      1.3694653     -2.0830535      17701.161    
    386000   0.8771682      0.0023323615  -0.0058907659   19.707476      18.404881      1.3025948     -2.1483784      17715.207    
    387000   0.865075       0.0023323615  -0.00044032531  19.959469      18.674833      1.2846364     -1.8274612      17616.353    
    388000   0.91879459     0.0023323615  -0.00089551685  19.509856      18.145446      1.36441       -2.2307145      17549.712    
    389000   1.0997147      0.0023323615  -0.0014952602   19.970463      18.337387      1.6330764     -2.223695       17617.59     
    390000   0.88795666     0.0023323615   0.0044386619   19.803494      18.484878      1.3186156     -2.0021248      17641.894    
    391000   1.0490245      0.0023323615   0.0003795003   20.219847      18.662046      1.5578014     -1.8768509      17884.289    
    392000   0.92892506     0.0023323615   0.0013005265   19.798429      18.418976      1.3794537     -2.1551116      17738.902    
    393000   1.1231907      0.0023323615  -0.0010725051   20.058916      18.390977      1.6679383     -2.0231558      17728.262    
    394000   0.97301512     0.0023323615   0.0017246811   19.725489      18.280561      1.4449275     -2.1822409      17601.342    
    395000   1.0216583      0.0023323615  -0.0015355923   19.882696      18.365534      1.5171625     -2.1699324      17627.836    
    396000   1.0091749      0.0023323615  -0.0039681653   20.012735      18.514111      1.4986247     -2.0263711      17646.66     
    397000   0.9850999      0.0023323615  -0.0011319944   19.874836      18.411963      1.4628733     -2.1076975      17520.846    
    398000   0.89960591     0.0023323615   0.0057352863   19.791324      18.455409      1.3359148     -2.0990744      17575.769    
    399000   0.92754918     0.0023323615   0.00088139182  19.966776      18.589365      1.3774105     -1.9160121      17560.036    
    400000   0.86915998     0.0023323615  -0.0053339263   19.539399      18.248697      1.2907026     -2.1715264      17565.757    
    401000   0.99606484     0.0023323615  -0.00063062128  19.742198      18.263042      1.4791563     -2.1718982      17694.511    
    402000   1.0972049      0.0023323615  -0.001740704    20.02364       18.394291      1.6293493     -2.0468127      17796.579    
    403000   1.0932817      0.0023323615  -0.0028283557   20.088331      18.464807      1.6235233     -2.1626803      17635.7      
    404000   1.1313227      0.0023323615  -0.0021427568   20.279817      18.599803      1.6800142     -1.8089071      17672.421    
    405000   1.1285562      0.0023323615   0.00027482941  20.165923      18.490018      1.675906      -2.1332819      17565.574    
    406000   0.91498342     0.0023323615  -0.0049216505   20.07276       18.71401       1.3587504     -1.9379423      17724.881    
    407000   0.88596582     0.0023323615   0.0017667807   19.787592      18.471933      1.3156593     -2.1935894      17729.565    
    408000   1.1134667      0.0023323615   0.0053724428   19.999787      18.346289      1.6534981     -2.2100887      17703.189    
    409000   1.072586       0.0023323615  -0.0028726037   20.182855      18.590065      1.5927902     -1.902411       17783.354    
    410000   0.93588105     0.0023323615   0.0040534104   19.692802      18.303018      1.3897834     -2.1538238      17858.943    
[...]
    861000   0.99698047     0.0023323615   0.00047839779  19.837696      18.35718       1.480516      -2.1987855      17801.966    
    862000   1.0075466      0.0023323615   0.001431396    19.834818      18.338612      1.4962067     -2.221495       17814.789    
    863000   1.064397       0.0023323615   2.6663087e-05  19.914462      18.333832      1.5806295     -2.1836514      17889.735    
    864000   0.92367836     0.0023323615   0.0023277471   19.645964      18.274302      1.3716624     -2.2698188      17676.834    
    865000   0.96251845     0.0023323615   0.0010471469   19.973601      18.544261      1.4293399     -2.0381526      17688.857    
    866000   0.98709476     0.0023323615  -0.0011313751   19.85589       18.390054      1.4658357     -2.1542443      17910.923    
    867000   0.94234029     0.0023323615  -0.0013020259   19.55232       18.152945      1.3993753     -2.3180495      17926.643    
    868000   1.1689513      0.0023323615  -0.00020034097  20.424614      18.688721      1.7358926     -1.9616592      17934.18     
    869000   1.0612421      0.0023323615  -0.0022404077   20.082844      18.5069        1.5759445     -2.0109587      17988.328    
    870000   1.0021064      0.0023323615   0.00086062404  19.996904      18.508776      1.488128      -1.9638151      18025.876    
    871000   1.0770683      0.0023323615   0.00068920306  19.933693      18.334246      1.5994465     -2.2322749      17948.325    
    872000   1.1310817      0.0023323615  -0.0069905463   20.298579      18.618923      1.6796563     -1.8743529      18011.313    
    873000   1.0009876      0.0023323615   0.00073421297  19.657202      18.170735      1.4864666     -2.4106639      18020.623    
    874000   0.96925836     0.0023323615  -0.00094790294  19.977625      18.538276      1.4393487     -1.9410952      17659.18     
    875000   1.0719774      0.0023323615  -0.00047427604  19.894065      18.302179      1.5918865     -2.1850259      17693.705    
    876000   1.1102281      0.0023323615  -0.0022296083   20.370555      18.721866      1.6486888     -1.7574939      17539.002    
    877000   1.0196143      0.0023323615   0.0041495995   20.112484      18.598357      1.5141272     -2.1453304      17649.837    
    878000   0.97121655     0.0023323615  -0.0047579161   19.908702      18.466445      1.4422566     -2.09858        17694.157    
    879000   1.0188803      0.0023323615  -0.0002636509   19.830792      18.317755      1.5130373     -2.0999817      17756.312    
    880000   0.90431995     0.0023323615  -0.0024351729   19.956926      18.614011      1.3429151     -1.8820328      17808.108    
    881000   1.0791311      0.0023323615   0.0018994008   19.943229      18.34072       1.6025097     -2.140729       17846.54     
    882000   1.0601381      0.0023323615  -0.0021215275   19.966139      18.391834      1.5743051     -2.2548195      17941.369    
    883000   0.85884513     0.0023323615  -0.0018941915   19.542152      18.266767      1.275385      -2.1616899      17897.71     
    884000   1.0102245      0.0023323615  -0.0017771541   19.947952      18.447768      1.5001833     -1.9994664      17889.992    
    885000   0.88925743     0.0023323615  -0.0020791107   19.815587      18.49504       1.3205473     -1.9938122      17975.341    
    886000   0.84589919     0.0023323615   0.0025022398   19.784289      18.528129      1.2561603     -1.913163       17757.206    
    887000   1.1202475      0.0023323615   0.0018228165   20.157169      18.493602      1.6635676     -2.112089       17657.802    
    888000   1.0213821      0.0023323615   0.0044013164   19.964452      18.447699      1.5167524     -2.0894117      17712.903    
    889000   0.93631863     0.0023323615  -7.9083804e-05  19.991015      18.600582      1.3904332     -1.8692982      17814.293    
    890000   1.0202823      0.0023323615   0.00194064     19.965649      18.45053       1.5151192     -1.9468904      17754.337    
    891000   1.1008532      0.0023323615   0.0021756815   20.277433      18.642666      1.634767      -1.8966662      17614.391    
    892000   1.0885125      0.0023323615   0.003998252    20.015342      18.398901      1.6164411     -2.1410367      17585.805    
    893000   1.0682553      0.0023323615  -0.0029221868   20.211069      18.62471       1.5863592     -1.9504286      17599.979    
    894000   1.016751       0.0023323615  -0.00016302259  20.066057      18.556181      1.5098753     -1.8719641      17716.015    
    895000   1.0521972      0.0023323615   0.0012878685   20.050717      18.488204      1.5625129     -2.0230214      17703.917    
    896000   0.93841554     0.0023323615   0.0010483475   19.788825      18.395278      1.3935471     -2.0290652      17778.412    
    897000   1.0835934      0.0023323615  -0.00042043539  20.092101      18.482965      1.6091362     -1.9352299      17956.132    
    898000   1.00706        0.0023323615  -0.00020585666  19.830106      18.334622      1.4954841     -2.1944242      17776.073    
    899000   1.0948539      0.0023323615  -0.0081350635   20.222571      18.596713      1.6258581     -2.0197305      17826.991    
    900000   0.96705401     0.0023323615   0.002038845    19.993479      18.557403      1.4360752     -1.9354824      17801.788    
    901000   1.0159015      0.0023323615  -0.0020432297   20.060481      18.551867      1.5086137     -1.9432886      17661.436    
    902000   1.1619031      0.0023323615   0.0021525664   20.136507      18.411081      1.7254261     -2.150867       17828.567    
    903000   1.0725732      0.0023323615  -0.0036200177   20.13986       18.547089      1.5927712     -1.9788501      17928.167    
    904000   1.1947234      0.0023323615  -0.00046054553  20.285022      18.510857      1.7741643     -2.1759245      17958.271    
    905000   0.92163896     0.0023323615   0.0011641763   19.800767      18.432133      1.3686339     -1.9996602      17869.036    
    906000   1.0124654      0.0023323615   0.00059167852  20.171675      18.668164      1.5035111     -1.9247568      18047.207    
    907000   1.0398926      0.0023323615  -0.0040068714   20.092854      18.548613      1.5442406     -2.0423783      17835.659    
    908000   0.97958529     0.0023323615  -0.0037797231   20.132881      18.678197      1.4546842     -1.8858166      17836.166    
    909000   1.0058494      0.0023323615   0.00050243724  19.960387      18.466701      1.4936864     -2.0339337      17870.626    
    910000   0.95853632     0.0023323615   0.002117808    19.733673      18.310247      1.4234264     -2.1977961      17605.813    
    911000   1.0883957      0.0023323615   0.00077302373  20.082171      18.465903      1.6162677     -2.0327471      17612.389    
    912000   0.92244047     0.0023323615  -0.002446537    19.717731      18.347907      1.3698241     -2.2107369      17741.399    
    913000   0.92506658     0.0023323615   0.0033304965   19.983503      18.60978       1.3737239     -1.9053801      17782.698    
    914000   0.93057685     0.0023323615   0.005012374    19.648185      18.266279      1.3819066     -2.222582       17731.462    
    915000   1.0824989      0.0023323615  -0.0016266126   20.340125      18.732614      1.6075109     -1.8972121      17827.02     
    916000   0.96920725     0.0023323615   0.0033993473   19.747008      18.307735      1.4392728     -2.1089851      17796.027    
    917000   0.88174029     0.0023323615  -0.0014537554   19.606843      18.297459      1.3093843     -2.1653167      17656.222    
    918000   1.0993458      0.0023323615   0.0023399133   20.182927      18.550399      1.6325284     -1.9408976      17917.514    
    919000   1.0797706      0.0023323615  -0.0026117071   20.226903      18.623444      1.6034593     -2.1989897      17890.293    
    920000   0.88346597     0.0023323615  -1.431592e-05   19.898948      18.587001      1.311947      -2.068262       17802.185    
    921000   0.97255435     0.0023323615   0.0015444225   19.57276       18.128517      1.4442432     -2.3267536      17823.795    
    922000   1.0148891      0.0023323615  -0.0025867476   20.109624      18.602513      1.5071103     -1.8793438      17716.676    
    923000   1.0515514      0.0023323615  -0.00059616242  19.989767      18.428213      1.5615538     -2.0855483      17606.083    
    924000   0.97484553     0.0023323615   0.00086117519  19.985681      18.538035      1.4476456     -2.0082708      17569.928    
    925000   0.9817348      0.0023323615  -0.002273821    19.795035      18.337159      1.4578762     -2.1419053      17706.502    
    926000   1.1930563      0.0023323615  -0.0019402854   20.300141      18.528452      1.7716886     -1.9170973      17812.914    
    927000   0.98426936     0.0023323615  -0.0023771592   19.96128       18.49964       1.46164       -1.9027073      17734.729    
    928000   1.0654245      0.0023323615  -0.00080171858  20.537811      18.955656      1.5821554     -1.5715464      17616.468    
    929000   1.0920554      0.0023323615  -0.00089887924  20.046678      18.424975      1.6217023     -1.9667847      17849.69     
    930000   0.99697728     0.0023323615  -0.0020515142   20.038674      18.558163      1.4805113     -1.9105786      17842.973    
    931000   0.87589995     0.0023323615  -0.0043220423   19.439378      18.138667      1.3007114     -2.2568012      17753.485    
    932000   1.0396209      0.0023323615   0.0049181996   19.954657      18.41082       1.543837      -2.1204844      17915.407    
    933000   1.0652567      0.0023323615   0.0033094482   20.056642      18.474736      1.5819062     -2.0199982      17838.142    
    934000   0.97991835     0.0023323615  -0.00081262882  20.130943      18.675764      1.4551787     -1.9234646      17746.771    
    935000   0.95884813     0.0023323615   0.00032037558  19.763167      18.339278      1.4238895     -2.180815       17778.017    
    936000   0.94934658     0.0023323615   0.0031712485   19.867832      18.458052      1.4097797     -2.0443526      17803.077    
    937000   1.0430254      0.0023323615  -2.0370416e-05  20.050286      18.501393      1.5488928     -2.0275298      17681.39     
    938000   0.87911521     0.0023323615  -0.00051648436  19.835947      18.530461      1.3054861     -2.0875164      17761.604    
    939000   1.0406879      0.0023323615   0.0013049114   20.12992       18.584498      1.5454215     -1.9724983      17878.328    
    940000   0.99858043     0.0023323615   0.0028375598   19.757686      18.274794      1.4828919     -2.205597       17885.625    
    941000   0.97575914     0.0023323615   0.0042610177   19.874951      18.425949      1.4490023     -2.1458626      17848.372    
    942000   1.1145438      0.0023323615  -0.0011233835   20.228375      18.573278      1.6550976     -1.8903876      17823.923    
    943000   0.85557442     0.0023323615  -0.0042498529   19.510928      18.2404        1.270528      -2.2506653      17780.044    
    944000   1.0112229      0.0023323615  -0.0031524364   20.042471      18.540805      1.501666      -2.0619538      17576.846    
    945000   0.88678066     0.0023323615   0.00096144046  19.798713      18.481843      1.3168693     -2.007512       17629.022    
    946000   1.0742289      0.0023323615  -0.0018721057   20.331256      18.736026      1.5952299     -1.8249788      17811.566    
    947000   1.0273895      0.0023323615   0.00088476482  19.910244      18.384571      1.5256734     -2.064044       17673.635    
    948000   0.96549601     0.0023323615  -0.00011392009  19.958384      18.524623      1.4337616     -1.9312638      17603.971    
    949000   0.86326987     0.0023323615  -0.0038183884   19.608919      18.326963      1.2819558     -2.2937876      17862.557    
    950000   1.0323622      0.0023323615   0.00070693601  19.983516      18.450458      1.5330579     -1.9902431      17731.912    
    951000   0.89387895     0.0023323615  -0.0026118102   19.596138      18.268728      1.3274102     -2.1911565      17510.38     
    952000   0.96894048     0.0023323615  -0.0023139957   20.046238      18.607361      1.4388766     -2.1323902      17609.95     
    953000   1.1044168      0.0023323615   0.0035670294   20.099479      18.45942       1.640059      -2.038504       17756.356    
    954000   1.0151375      0.0023323615  -0.0031318871   19.835586      18.328107      1.5074792     -2.1501639      17730.973    
    955000   0.79296191     0.0023323615   0.0017461762   19.421219      18.24367       1.1775484     -2.2194798      17863.82     
    956000   0.94564869     0.0023323615   0.0001615132   19.928863      18.524575      1.4042883     -2.0598989      17825.724    
    957000   0.99384752     0.0023323615   0.0028755819   20.033988      18.558124      1.4758636     -2.0092899      17667.407    
    958000   1.0362313      0.0023323615   0.0031591466   19.828411      18.289608      1.5388034     -2.2110186      17644.769    
    959000   1.0743439      0.0023323615  -0.0023072755   20.141797      18.546396      1.5954007     -2.0093726      17812.243    
    960000   1.1724826      0.0023323615  -0.0014285869   20.180992      18.439855      1.7411367     -2.084332       17827.523    
    961000   0.96187794     0.0023323615  -9.8507969e-05  19.96847       18.540081      1.4283887     -2.0501518      17752.181    
    962000   0.94554483     0.0023323615   0.00081401906  20.139754      18.73562       1.4041341     -1.7270696      17810.635    
    963000   0.99831801     0.0023323615   0.00049792717  20.177124      18.694622      1.4825022     -1.9746919      17773.667    
    964000   1.1033941      0.0023323615  -0.0036832236   19.935001      18.29646       1.6385403     -2.1295855      17641.289    
    965000   0.81154089     0.0023323615  -0.0019115033   19.901809      18.69667       1.2051382     -1.8471489      17569.919    
    966000   0.84339346     0.0023323615  -0.0046405323   19.522032      18.269592      1.2524393     -2.1671815      17580.471    
    967000   0.94144918     0.0023323615   0.0019176137   19.839658      18.441606      1.398052      -2.0702622      17683.74     
    968000   1.0879904      0.0023323615  -0.0022327531   19.889832      18.274166      1.6156658     -2.2245513      17589.434    
    969000   1.1356154      0.0023323615   0.0032961601   20.262913      18.576524      1.6863889     -1.9128476      17501.608    
    970000   0.97272558     0.0023323615  -0.00052501932  19.605431      18.160934      1.4444975     -2.4275157      17467.186    
    971000   1.2723316      0.0023323615  -0.00040480697  20.297982      18.408569      1.8894125     -2.1057281      17559.511    
    972000   1.0235599      0.0023323615   0.0017329207   19.776893      18.256906      1.5199865     -2.2610991      17621.251    
    973000   0.9473328      0.0023323615   0.0021597369   19.650219      18.24343       1.4067892     -2.2373267      17796.512    
    974000   1.0029695      0.0023323615  -0.005326829    20.146025      18.656615      1.4894097     -1.9379308      17821.116    
    975000   1.0140903      0.0023323615  -0.002677028    20.016037      18.510113      1.5059241     -2.083286       17664.086    
    976000   0.78326934     0.0023323615  -0.0041670185   19.498889      18.335734      1.163155      -2.059445       17613.073    
    977000   1.03949        0.0023323615   0.00086101585  20.214381      18.670738      1.5436426     -1.8296612      17672.493    
    978000   1.0849765      0.0023323615   0.0053744978   20.459585      18.848395      1.6111901     -1.7823293      17941.121    
    979000   1.0959739      0.0023323615  -0.0012074105   20.03109       18.403569      1.6275212     -2.1119705      17732.762    
    980000   0.95346252     0.0023323615   0.0015035187   19.985649      18.569757      1.4158918     -2.0007397      17620.71     
    981000   0.9334842      0.0023323615  -0.0037144708   19.961891      18.575667      1.386224      -1.9164747      17683.702    
    982000   0.91615834     0.0023323615  -0.0045128319   19.989953      18.629458      1.3604951     -1.8960982      17513.588    
    983000   1.1207583      0.0023323615   0.00039908325  20.1042        18.439874      1.664326      -2.1857694      17487.807    
    984000   1.0303662      0.0023323615  -0.001094641    20.063527      18.533433      1.5300938     -2.0531238      17349.806    
    985000   1.0215134      0.0023323615  -0.0036052928   19.955476      18.438529      1.5169474     -2.0908082      17494.424    
    986000   1.1455544      0.0023323615  -0.0025733037   20.149404      18.448256      1.7011482     -2.1662477      17571.264    
    987000   1.0477285      0.0023323615  -0.0042374168   19.967897      18.41202       1.5558769     -2.0419985      17602.379    
    988000   0.97103922     0.0023323615   0.00096023357  19.91609       18.474097      1.4419932     -2.0392819      17751.284    
    989000   1.0068651      0.0023323615  -0.0013078922   20.095394      18.600199      1.4951947     -1.9031651      17752.771    
    990000   0.98322357     0.0023323615   0.0032552099   20.071733      18.611646      1.460087      -1.8438777      17732.271    
    991000   1.0785604      0.0023323615   0.00060685004  20.248802      18.64714       1.6016621     -2.0298899      17765.486    
    992000   1.098462       0.0023323615   0.0056961332   19.847456      18.21624       1.6312161     -2.2679956      17659.823    
    993000   1.0334629      0.0023323615  -0.00029308572  19.919173      18.384481      1.5346924     -2.1101977      17747.194    
    994000   0.90779915     0.0023323615  -0.0035644869   19.64759       18.299508      1.3480817     -2.1732424      17688.575    
    995000   0.9660056      0.0023323615   0.0027722518   19.626557      18.192039      1.4345183     -2.3058555      17584.293    
    996000   1.0366233      0.0023323615   0.00019365478  20.006299      18.466913      1.5393857     -2.1509121      17890.71     
    997000   1.1584064      0.0023323615  -4.4351469e-06  20.347738      18.627505      1.7202334     -2.0125911      17862.228    
    998000   0.95664931     0.0023323615   0.00054218433  19.914671      18.494047      1.4206242     -2.0577486      17900.952    
    999000   0.83776198     0.0023323615  -0.00091435977  19.552908      18.308831      1.2440765     -2.0780054      17728.13     
   1000000   0.97143344     0.0023323615  -0.00034418375  19.921955      18.479376      1.4425787     -2.0618706      17822.029    
Loop time of 56.1066 on 1 procs for 1000000 steps with 100 atoms

Performance: 7699625.742 tau/day, 17823.208 timesteps/s
99.4% CPU use with 1 MPI tasks x 1 OpenMP threads

MPI task timing breakdown:
Section |  min time  |  avg time  |  max time  |%varavg| %total
---------------------------------------------------------------
Pair    | 47.138     | 47.138     | 47.138     |   0.0 | 84.01
Bond    | 1.263      | 1.263      | 1.263      |   0.0 |  2.25
Neigh   | 3.8145     | 3.8145     | 3.8145     |   0.0 |  6.80
Comm    | 1.3733     | 1.3733     | 1.3733     |   0.0 |  2.45
Output  | 0.21357    | 0.21357    | 0.21357    |   0.0 |  0.38
Modify  | 1.9494     | 1.9494     | 1.9494     |   0.0 |  3.47
Other   |            | 0.3551     |            |       |  0.63

Nlocal:            100 ave         100 max         100 min
Histogram: 1 0 0 0 0 0 0 0 0 0
Nghost:            318 ave         318 max         318 min
Histogram: 1 0 0 0 0 0 0 0 0 0
Neighs:           4851 ave        4851 max        4851 min
Histogram: 1 0 0 0 0 0 0 0 0 0

Total # of neighbors = 4851
Ave neighs/atom = 48.51
Ave special neighs/atom = 1.98
Neighbor list builds = 97745
Dangerous builds = 78813

write_data      ${outputfile_assembled} nofix nocoeff
write_data      7_assembled.data nofix nocoeff
System init for write_data ...
Generated 0 of 6 mixed pair_coeff terms from geometric mixing rule

Total wall time: 0:00:57
