LAMMPS (23 Jun 2022 - Update 1)
OMP_NUM_THREADS environment is not set. Defaulting to 1 thread. (src/comm.cpp:98)
  using 1 OpenMP thread(s) per MPI task


variable        runtime equal 1000000
variable		subsample_rate equal 1000

variable		outputfile_created string '3_created.data'
variable		outputfile_relaxed string '5_relaxed.data'
variable		outputfile_selfasb string '6_a_self_assemble.lammpstrj'
variable		outputfile_trajlin string '6_b_trajlin.data'
variable		outputfile_assembled string '7_assembled.data'

units           lj
atom_style      full
dimension       3
boundary        p p p
timestep        0.005

read_data       ${outputfile_created}
read_data       3_created.data
Reading data file ...
  orthogonal box = (0 0 0) to (35 35 35)
  1 by 1 by 1 MPI processor grid
  reading atoms ...
  100 atoms
  reading velocities ...
  100 velocities
  scanning bonds ...
  1 = max bonds/atom
  reading bonds ...
  99 bonds
Finding 1-2 1-3 1-4 neighbors ...
  special bond factors lj:    0        0        0       
  special bond factors coul:  0        0        0       
     2 = max # of 1-2 neighbors
     2 = max # of 1-3 neighbors
     4 = max # of 1-4 neighbors
     6 = max # of special neighbors
  special bonds CPU = 0.000 seconds
  read_data CPU = 0.006 seconds

bond_style      fene
bond_coeff      * 30.0 1.5 1.0 1.0
special_bonds   fene
Finding 1-2 1-3 1-4 neighbors ...
  special bond factors lj:    0        1        1       
  special bond factors coul:  0        1        1       
     2 = max # of 1-2 neighbors
     6 = max # of special neighbors
  special bonds CPU = 0.000 seconds

variable        Temp equal 1.0
variable        velSeed equal 926458

velocity        all create ${Temp} ${velSeed}
velocity        all create 1 ${velSeed}
velocity        all create 1 926458

### Output
thermo_style    custom step temp density press etotal pe ke epair spcpu
thermo          1000

###########################################################################
# Soft relaxation (to remove overlaps of particles)
######################################################################

pair_style      soft 1.0
pair_coeff      * * 0.0
variable        prefactor equal ramp(0,300)
fix             rampSoft all adapt 1 pair soft a * * v_prefactor

minimize        0.0 1.0e-8 1000 100000
WARNING: Using 'neigh_modify every 1 delay 0 check yes' setting during minimization (src/min.cpp:187)
Generated 0 of 6 mixed pair_coeff terms from geometric mixing rule
Neighbor list info ...
  update every 1 steps, delay 0 steps, check yes
  max neighbors/atom: 2000, page size: 100000
  master list distance cutoff = 1.3
  ghost atom cutoff = 1.3
  binsize = 0.65, bins = 54 54 54
  1 neighbor lists, perpetual/occasional/extra = 1 0 0
  (1) pair soft, perpetual
      attributes: half, newton on
      pair build: half/bin/newton
      stencil: half/bin/3d
      bin: standard
WARNING: Communication cutoff 1.3 is shorter than a bond length based estimate of 1.7550000000000001. This may lead to errors. (src/comm.cpp:727)
Per MPI rank memory allocation (min/avg/max) = 8.346 | 8.346 | 8.346 Mbytes
   Step          Temp         Density         Press          TotEng         PotEng         KinEng         E_pair         S/CPU     
         0   1              0.0023323615  -0.0039617958   21.524174      20.039174      1.485          0              0            
       362   1              0.0023323615   0.0023090379   21.485548      20.000548      1.485          0              68210.536    
Loop time of 0.00530994 on 1 procs for 362 steps with 100 atoms

99.1% CPU use with 1 MPI tasks x 1 OpenMP threads

Minimization stats:
  Stopping criterion = force tolerance
  Energy initial, next-to-last, final = 
      20.0391741078675   20.0005480767337   20.0005480767337
  Force two-norm initial, final = 11.878422 7.9509778e-09
  Force max component initial, final = 6.6117807 1.3572772e-09
  Final line search alpha, max atom move = 1 1.3572772e-09
  Iterations, force evaluations = 362 738

MPI task timing breakdown:
Section |  min time  |  avg time  |  max time  |%varavg| %total
---------------------------------------------------------------
Pair    | 0.00022172 | 0.00022172 | 0.00022172 |   0.0 |  4.18
Bond    | 0.0023506  | 0.0023506  | 0.0023506  |   0.0 | 44.27
Neigh   | 0.0015649  | 0.0015649  | 0.0015649  |   0.0 | 29.47
Comm    | 0.00019746 | 0.00019746 | 0.00019746 |   0.0 |  3.72
Output  | 0          | 0          | 0          |   0.0 |  0.00
Modify  | 0          | 0          | 0          |   0.0 |  0.00
Other   |            | 0.0009752  |            |       | 18.37

Nlocal:            100 ave         100 max         100 min
Histogram: 1 0 0 0 0 0 0 0 0 0
Nghost:             20 ave          20 max          20 min
Histogram: 1 0 0 0 0 0 0 0 0 0
Neighs:              0 ave           0 max           0 min
Histogram: 1 0 0 0 0 0 0 0 0 0

Total # of neighbors = 0
Ave neighs/atom = 0
Ave special neighs/atom = 1.98
Neighbor list builds = 17
Dangerous builds = 0

fix             nvtSoft all nvt temp ${Temp} ${Temp} 0.5
fix             nvtSoft all nvt temp 1 ${Temp} 0.5
fix             nvtSoft all nvt temp 1 1 0.5
run             100000
Generated 0 of 6 mixed pair_coeff terms from geometric mixing rule
WARNING: Communication cutoff 1.3 is shorter than a bond length based estimate of 1.7550000000000001. This may lead to errors. (src/comm.cpp:727)
Per MPI rank memory allocation (min/avg/max) = 7.221 | 7.221 | 7.221 Mbytes
   Step          Temp         Density         Press          TotEng         PotEng         KinEng         E_pair         S/CPU     
       362   1              0.0023323615   0.0023090379   21.485548      20.000548      1.485          0              0            
      1000   0.90989032     0.0023323615  -0.0021940042   21.776974      20.425787      1.3511871      0.00036425437  75030.162    
      2000   0.86546688     0.0023323615   0.0034714157   21.677128      20.39191       1.2852183      0.0025814786   75339.362    
      3000   0.98199538     0.0023323615   0.0028144228   21.866132      20.407869      1.4582631      0.0011756043   72743.329    
      4000   1.004495       0.0023323615  -0.0014058211   21.945624      20.453949      1.4916751      0.011986179    73837.613    
      5000   1.1222705      0.0023323615   0.0044495116   21.986385      20.319813      1.6665718      0.0050317639   74223.406    
      6000   1.0538243      0.0023323615   0.0023957538   21.985713      20.420784      1.564929       0.012100514    75236.681    
      7000   1.0210598      0.0023323615  -0.00038820026  21.904665      20.388391      1.5162738      0              76876.561    
      8000   0.94819751     0.0023323615   0.0024943091   21.747889      20.339816      1.4080733      0              76852.887    
      9000   0.92364502     0.0023323615   0.0020053029   21.724166      20.352554      1.3716129      1.7780894e-05  75425.498    
     10000   0.86685188     0.0023323615   0.00078277366  21.644879      20.357604      1.287275       0.0098636418   75776.629    
     11000   1.0057103      0.0023323615   0.00010113276  21.8558        20.362321      1.4934798      0.020705341    75946.493    
     12000   0.97901664     0.0023323615  -0.0026996968   21.871206      20.417366      1.4538397      0.0052928539   75689.518    
     13000   0.97718436     0.0023323615  -6.1641422e-06  21.963706      20.512587      1.4511188      0.025022446    75541.664    
     14000   1.0530014      0.0023323615  -0.0009993112   21.947994      20.384287      1.5637071      0.0020860456   74570.704    
     15000   0.99094527     0.0023323615   0.0011068478   21.895146      20.423592      1.4715537      0.0015091113   75904.157    
     16000   0.91285091     0.0023323615  -0.00025424173  21.87524       20.519657      1.3555836      0.0047853639   75332.427    
     17000   0.82806978     0.0023323615  -0.00054698156  21.701984      20.472301      1.2296836      0              75567.169    
     18000   1.043278       0.0023323615  -6.6143919e-05  22.003299      20.454031      1.5492679      0.0034319132   72916.569    
     19000   1.0879249      0.0023323615  -0.0017804642   21.998985      20.383416      1.6155685      0.015376175    73830.303    
     20000   1.1144506      0.0023323615   0.0025198298   22.190904      20.535944      1.6549592      0              75930.715    
     21000   1.0427751      0.0023323615   0.0011345349   22.099492      20.550971      1.548521       0.00040047813  76118.742    
     22000   1.0586695      0.0023323615   0.0017882747   22.05673       20.484606      1.5721242      0              76164.63     
     23000   1.0058426      0.0023323615  -0.0055245362   21.954628      20.460951      1.4936763      0.0027619031   75243.26     
     24000   0.98273442     0.0023323615   0.0015147357   21.862067      20.402707      1.4593606      0              75417.807    
     25000   0.95835343     0.0023323615   0.0017808774   21.937761      20.514606      1.4231548      0.00020839942  75145.657    
     26000   0.93993778     0.0023323615  -0.0021777292   21.884849      20.489042      1.3958076      0.0088889834   74860.531    
     27000   0.9308188      0.0023323615  -0.00011239942  21.842252      20.459986      1.3822659      0.021612409    73849.691    
     28000   1.0149581      0.0023323615   0.0041996387   21.906846      20.399633      1.5072129      0.0064059022   75301.619    
     29000   0.92841138     0.0023323615  -2.5398808e-05  21.987185      20.608494      1.3786909      0.0046112484   75323.893    
     30000   1.021043       0.0023323615   0.001589158    22.097958      20.581709      1.5162489      0.016799508    73089.301    
     31000   1.0465985      0.0023323615  -0.0021744286   22.037917      20.483718      1.5541987      0.0057879149   76002.644    
     32000   0.98907108     0.0023323615  -0.0015558606   22.044089      20.575318      1.4687705      0.009448173    75674.712    
     33000   1.0918536      0.0023323615  -0.0025643847   22.039275      20.417873      1.6214025      0              74297.716    
     34000   0.99801543     0.0023323615   0.0016279766   21.932339      20.450286      1.4820529      0.017384617    75967.47     
     35000   1.0352271      0.0023323615  -0.0052971711   22.076004      20.538692      1.5373122      0.00010473809  75394.278    
     36000   1.1141579      0.0023323615  -0.00093279925  22.222491      20.567966      1.6545245      0.00033678641  76293.229    
     37000   1.0369415      0.0023323615   0.00013065175  22.217841      20.677983      1.5398581      0.013788831    74563.075    
     38000   1.0515596      0.0023323615   0.0021717558   22.070766      20.5092        1.561566       0.0067894678   76051.116    
     39000   1.0238495      0.0023323615   0.00026414509  22.040141      20.519725      1.5204165      0.00044464649  75395.188    
     40000   1.0749111      0.0023323615  -0.0026849368   22.039327      20.443084      1.596243       0.012651334    73684.61     
     41000   0.99070886     0.0023323615  -0.0030385564   22.03241       20.561207      1.4712027      0.00092855646  77024.993    
     42000   0.95315224     0.0023323615   0.0019788197   21.965263      20.549832      1.4154311      0.020233689    74941.862    
     43000   1.0644183      0.0023323615  -0.0011168725   22.287172      20.706511      1.5806611      0.039694129    75515.72     
     44000   1.0253747      0.0023323615  -0.006676522    22.066233      20.543552      1.5226814      0              72999.921    
     45000   0.94179556     0.0023323615  -0.0047206018   21.970644      20.572077      1.3985664      0.019869988    73892.173    
     46000   1.0083495      0.0023323615  -0.0017646918   21.972114      20.474715      1.497399       0.00026040605  74893.055    
     47000   0.98767959     0.0023323615  -0.00080218158  22.091674      20.62497       1.4667042      0.024266258    74668.886    
     48000   1.1473449      0.0023323615  -0.0025885687   22.080512      20.376705      1.7038072      0.00065962995  75356.139    
     49000   1.0679312      0.0023323615   0.0017688272   21.970482      20.384604      1.5858779      0.014142422    76445.802    
     50000   0.9581935      0.0023323615   0.0014398836   21.955202      20.532284      1.4229173      0.0055011948   75693.534    
     51000   1.0215759      0.0023323615  -0.00093292688  21.934681      20.41764       1.5170402      0              75355.906    
     52000   0.98079591     0.0023323615   0.0040701936   21.977374      20.520892      1.4564819      0.0020862422   75591.155    
     53000   1.0090927      0.0023323615   0.0013324753   22.095438      20.596935      1.4985027      0              72173.562    
     54000   0.97519627     0.0023323615   0.0013260734   22.070151      20.621984      1.4481665      0.026885444    76659.986    
     55000   1.1805087      0.0023323615  -0.001586238    22.424088      20.671033      1.7530554      0.024690954    76091.12     
     56000   0.98387121     0.0023323615   0.0037155145   22.104425      20.643376      1.4610487      0.01435493     75544.124    
     57000   1.0723812      0.0023323615  -0.0037916262   22.122726      20.53024       1.592486       0.013635549    76129.949    
     58000   1.0152349      0.0023323615   0.00021908047  22.082827      20.575203      1.5076238      0.00077375639  75616.517    
     59000   1.1424502      0.0023323615  -0.0052108657   22.30072       20.604182      1.6965385      0.013308184    76564.314    
     60000   1.0359703      0.0023323615  -0.00097887545  22.188218      20.649802      1.538416       0.00011346294  75335.662    
     61000   1.1646839      0.0023323615  -0.002085017    22.239945      20.51039       1.7295556      0.012918477    77185.526    
     62000   1.101836       0.0023323615   0.0010338878   22.171386      20.53516       1.6362265      0.001396566    74826.63     
     63000   0.96616435     0.0023323615   0.00097550571  21.903821      20.469067      1.4347541      0.013027663    76324.971    
     64000   1.0068907      0.0023323615  -0.0020278726   22.061652      20.566419      1.4952327      0.013750276    76076.035    
     65000   0.98723233     0.0023323615   0.0022441476   22.031073      20.565033      1.46604        0.0066686189   76457.515    
     66000   1.0273881      0.0023323615  -0.0003515278   22.183579      20.657908      1.5256713      0              74990.564    
     67000   0.96528212     0.0023323615  -0.00014822656  21.9396        20.506156      1.4334439      0.010365557    76637.678    
     68000   1.069702       0.0023323615   9.4754668e-05  22.081119      20.492611      1.5885075      0.00049153926  73748.254    
     69000   1.1229502      0.0023323615   0.0011504079   22.200329      20.532748      1.6675811      0.0068454249   76598.511    
     70000   1.0062775      0.0023323615  -0.00085311964  22.094021      20.599699      1.4943221      0.013222355    72875.791    
     71000   1.0906935      0.0023323615   0.00015260357  22.145362      20.525682      1.6196798      0.018338513    74986.904    
     72000   1.010401       0.0023323615  -6.0487182e-06  22.154105      20.653659      1.5004455      0.0013793953   74383.144    
     73000   1.1177599      0.0023323615  -0.0034084797   22.254435      20.594562      1.6598735      0.00011231735  76973.737    
     74000   0.9768019      0.0023323615   0.00016143893  22.07312       20.622569      1.4505508      0.0084515956   75113.929    
     75000   1.1360996      0.0023323615   0.002159116    22.161595      20.474487      1.6871079      0.0089909162   76004.209    
     76000   0.97379329     0.0023323615  -0.00068458621  21.988928      20.542845      1.446083       0              75351.415    
     77000   0.94876793     0.0023323615  -0.0016073976   21.923496      20.514575      1.4089204      0.017745108    75516.176    
     78000   0.83947996     0.0023323615  -0.00062768559  21.726727      20.480099      1.2466277      0.0054510099   76077.661    
     79000   1.0090614      0.0023323615  -0.00080262643  22.068192      20.569736      1.4984562      0.00023011166  74581.349    
     80000   1.1217643      0.0023323615  -0.0038177864   22.367902      20.702082      1.66582        0.032902439    75417.176    
     81000   1.0240158      0.0023323615   0.00023547123  22.031597      20.510933      1.5206635      0.0068767308   75314.634    
     82000   1.003236       0.0023323615  -0.0022802982   21.894199      20.404393      1.4898055      0.019136282    73833.792    
     83000   1.0554159      0.0023323615   0.004011718    22.104562      20.537269      1.5672927      0.0080869707   74020.127    
     84000   0.83527346     0.0023323615  -0.0034122221   21.874648      20.634267      1.2403811      0.0030083664   75129.194    
     85000   1.036002       0.0023323615   0.0013573923   21.962923      20.42446       1.5384629      0.015709144    75866.772    
     86000   0.9432002      0.0023323615  -0.0032183248   21.913588      20.512936      1.4006523      0.013730309    75910.852    
     87000   0.95566008     0.0023323615  -0.00049614223  21.91653       20.497375      1.4191552      0.0035862035   71820.109    
     88000   0.93373351     0.0023323615  -0.00097093893  21.870485      20.483891      1.3865943      0.0018212145   72174.974    
     89000   0.9684944      0.0023323615  -0.00047342045  21.973429      20.535215      1.4382142      0.00087524744  75295.592    
     90000   0.98293324     0.0023323615  -0.0032204602   22.050919      20.591263      1.4596559      0.015353933    76576.533    
     91000   1.0832827      0.0023323615   0.0048517083   22.11977       20.511095      1.6086749      0.0052867789   77344.976    
     92000   0.85899662     0.0023323615  -0.0013049519   21.765697      20.490087      1.27561        0.0024124001   76028.121    
     93000   0.96176266     0.0023323615  -4.4223672e-05  21.874222      20.446004      1.4282176      0.0045653365   76732.356    
     94000   0.96019503     0.0023323615   0.00024459347  21.944954      20.519064      1.4258896      3.8053462e-05  76025.34     
     95000   0.94702149     0.0023323615  -0.0033658915   21.86315       20.456823      1.4063269      0              77122.421    
     96000   0.91119348     0.0023323615  -0.0013197298   21.825018      20.471896      1.3531223      0.00043282989  73321.25     
     97000   1.0016687      0.0023323615  -0.0019514304   22.013024      20.525546      1.487478       0.0048369955   74721.768    
     98000   1.02143        0.0023323615  -0.0057874974   22.177965      20.661142      1.5168235      0              74034.781    
     99000   1.032786       0.0023323615   0.0018228259   21.975336      20.441649      1.5336871      7.1595851e-05  77183.256    
    100000   1.0594928      0.0023323615   0.0036169719   22.011024      20.437677      1.5733468      0.00032948157  75331.967    
    100362   1.1904942      0.0023323615  -0.00089755607  22.316856      20.548972      1.7678839      0.00063845255  75018.242    
Loop time of 1.32892 on 1 procs for 100000 steps with 100 atoms

Performance: 32507537.021 tau/day, 75248.928 timesteps/s
99.4% CPU use with 1 MPI tasks x 1 OpenMP threads

MPI task timing breakdown:
Section |  min time  |  avg time  |  max time  |%varavg| %total
---------------------------------------------------------------
Pair    | 0.049859   | 0.049859   | 0.049859   |   0.0 |  3.75
Bond    | 0.13006    | 0.13006    | 0.13006    |   0.0 |  9.79
Neigh   | 0.80592    | 0.80592    | 0.80592    |   0.0 | 60.64
Comm    | 0.057522   | 0.057522   | 0.057522   |   0.0 |  4.33
Output  | 0.0014678  | 0.0014678  | 0.0014678  |   0.0 |  0.11
Modify  | 0.24915    | 0.24915    | 0.24915    |   0.0 | 18.75
Other   |            | 0.03495    |            |       |  2.63

Nlocal:            100 ave         100 max         100 min
Histogram: 1 0 0 0 0 0 0 0 0 0
Nghost:             60 ave          60 max          60 min
Histogram: 1 0 0 0 0 0 0 0 0 0
Neighs:             36 ave          36 max          36 min
Histogram: 1 0 0 0 0 0 0 0 0 0

Total # of neighbors = 36
Ave neighs/atom = 0.36
Ave special neighs/atom = 1.98
Neighbor list builds = 9821
Dangerous builds = 8265
unfix           nvtSoft
unfix           rampSoft
reset_timestep  0

write_data      ${outputfile_relaxed}
write_data      5_relaxed.data
System init for write_data ...
Generated 0 of 6 mixed pair_coeff terms from geometric mixing rule
WARNING: Communication cutoff 1.3 is shorter than a bond length based estimate of 1.7550000000000001. This may lead to errors. (src/comm.cpp:727)
WARNING: Not all mixed pair coeffs generated from mixing. Use write_data with 'pair ij' option to store all pair coeffs. (src/write_data.cpp:309)

###########################################################################
# Full LJ with Coulomb
######################################################################

# Cutoffs and parameters:
# - Values: Marcel Verkade's Bachelor Thesis
# - Mapping to atom groups: Patrick Onck's paper
# - 1: aliphatic, 2: aromatic, 3: anion, 4: cation
# pair_style	lj/cut/coul/cut <lj_cut_global> <coul_cut_global>
# pair_coeff	<type_1>  <type_2>  <eps>  <sigma>  <r_cut_lj>  <r_cut_coul>

# Problem: Onck's model is much more complex, and Marcel has no sigma reported
# Using sigma=1 randomly

variable		glob_ljeps equal 1.0
variable		glob_ljsig 	equal 1.0
variable		glob_coulcut equal 10.0
variable		att_ljcut equal 2.50
variable		rep_ljcut equal 1.12

pair_style		lj/cut/coul/cut 						${att_ljcut} 	${glob_coulcut}
pair_style		lj/cut/coul/cut 						2.5 	${glob_coulcut}
pair_style		lj/cut/coul/cut 						2.5 	10
pair_coeff		1 1 	${glob_ljeps} 	${glob_ljsig}	${att_ljcut} 	${glob_coulcut}
pair_coeff		1 1 	1 	${glob_ljsig}	${att_ljcut} 	${glob_coulcut}
pair_coeff		1 1 	1 	1	${att_ljcut} 	${glob_coulcut}
pair_coeff		1 1 	1 	1	2.5 	${glob_coulcut}
pair_coeff		1 1 	1 	1	2.5 	10
pair_coeff		1 2 	${glob_ljeps} 	${glob_ljsig}	${att_ljcut} 	${glob_coulcut}
pair_coeff		1 2 	1 	${glob_ljsig}	${att_ljcut} 	${glob_coulcut}
pair_coeff		1 2 	1 	1	${att_ljcut} 	${glob_coulcut}
pair_coeff		1 2 	1 	1	2.5 	${glob_coulcut}
pair_coeff		1 2 	1 	1	2.5 	10
pair_coeff		1 3 	${glob_ljeps} 	${glob_ljsig}	${rep_ljcut} 	${glob_coulcut}
pair_coeff		1 3 	1 	${glob_ljsig}	${rep_ljcut} 	${glob_coulcut}
pair_coeff		1 3 	1 	1	${rep_ljcut} 	${glob_coulcut}
pair_coeff		1 3 	1 	1	1.12 	${glob_coulcut}
pair_coeff		1 3 	1 	1	1.12 	10
pair_coeff		1 4 	${glob_ljeps} 	${glob_ljsig}	${rep_ljcut} 	${glob_coulcut}
pair_coeff		1 4 	1 	${glob_ljsig}	${rep_ljcut} 	${glob_coulcut}
pair_coeff		1 4 	1 	1	${rep_ljcut} 	${glob_coulcut}
pair_coeff		1 4 	1 	1	1.12 	${glob_coulcut}
pair_coeff		1 4 	1 	1	1.12 	10
pair_coeff		2 2 	${glob_ljeps} 	${glob_ljsig}	${att_ljcut} 	${glob_coulcut}
pair_coeff		2 2 	1 	${glob_ljsig}	${att_ljcut} 	${glob_coulcut}
pair_coeff		2 2 	1 	1	${att_ljcut} 	${glob_coulcut}
pair_coeff		2 2 	1 	1	2.5 	${glob_coulcut}
pair_coeff		2 2 	1 	1	2.5 	10
pair_coeff		2 3 	${glob_ljeps} 	${glob_ljsig}	${rep_ljcut} 	${glob_coulcut}
pair_coeff		2 3 	1 	${glob_ljsig}	${rep_ljcut} 	${glob_coulcut}
pair_coeff		2 3 	1 	1	${rep_ljcut} 	${glob_coulcut}
pair_coeff		2 3 	1 	1	1.12 	${glob_coulcut}
pair_coeff		2 3 	1 	1	1.12 	10
pair_coeff		2 4 	${glob_ljeps} 	${glob_ljsig}	${att_ljcut} 	${glob_coulcut}
pair_coeff		2 4 	1 	${glob_ljsig}	${att_ljcut} 	${glob_coulcut}
pair_coeff		2 4 	1 	1	${att_ljcut} 	${glob_coulcut}
pair_coeff		2 4 	1 	1	2.5 	${glob_coulcut}
pair_coeff		2 4 	1 	1	2.5 	10
pair_coeff		3 3 	${glob_ljeps} 	${glob_ljsig}	${rep_ljcut} 	${glob_coulcut}
pair_coeff		3 3 	1 	${glob_ljsig}	${rep_ljcut} 	${glob_coulcut}
pair_coeff		3 3 	1 	1	${rep_ljcut} 	${glob_coulcut}
pair_coeff		3 3 	1 	1	1.12 	${glob_coulcut}
pair_coeff		3 3 	1 	1	1.12 	10
pair_coeff		3 4 	${glob_ljeps} 	${glob_ljsig}	${att_ljcut} 	${glob_coulcut}
pair_coeff		3 4 	1 	${glob_ljsig}	${att_ljcut} 	${glob_coulcut}
pair_coeff		3 4 	1 	1	${att_ljcut} 	${glob_coulcut}
pair_coeff		3 4 	1 	1	2.5 	${glob_coulcut}
pair_coeff		3 4 	1 	1	2.5 	10
pair_coeff		4 4 	${glob_ljeps} 	${glob_ljsig}	${rep_ljcut} 	${glob_coulcut}
pair_coeff		4 4 	1 	${glob_ljsig}	${rep_ljcut} 	${glob_coulcut}
pair_coeff		4 4 	1 	1	${rep_ljcut} 	${glob_coulcut}
pair_coeff		4 4 	1 	1	1.12 	${glob_coulcut}
pair_coeff		4 4 	1 	1	1.12 	10


fix             noDriftRot 	all momentum 10 linear 1 1 1 angular
fix             nvt1 		all nvt temp ${Temp} ${Temp} 0.5
fix             nvt1 		all nvt temp 1 ${Temp} 0.5
fix             nvt1 		all nvt temp 1 1 0.5

# dump          assemble 	all custom 1000 				${outputfile_selfasb} id type xu yu zu vx vy vz
dump            lindump 	all custom ${subsample_rate} 	${outputfile_trajlin} id type xu yu zu vx vy vz
dump            lindump 	all custom 1000 	${outputfile_trajlin} id type xu yu zu vx vy vz
dump            lindump 	all custom 1000 	6_b_trajlin.data id type xu yu zu vx vy vz

run             ${runtime}
run             1000000
Generated 0 of 6 mixed pair_coeff terms from geometric mixing rule
Neighbor list info ...
  update every 1 steps, delay 10 steps, check yes
  max neighbors/atom: 2000, page size: 100000
  master list distance cutoff = 10.3
  ghost atom cutoff = 10.3
  binsize = 5.15, bins = 7 7 7
  1 neighbor lists, perpetual/occasional/extra = 1 0 0
  (1) pair lj/cut/coul/cut, perpetual
      attributes: half, newton on
      pair build: half/bin/newton
      stencil: half/bin/3d
      bin: standard
Per MPI rank memory allocation (min/avg/max) = 7.712 | 7.712 | 7.712 Mbytes
   Step          Temp         Density         Press          TotEng         PotEng         KinEng         E_pair         S/CPU     
         0   1.1904942      0.0023323615  -0.0016427881   21.80724       20.039356      1.7678839     -0.50897821     0            
      1000   1.1132441      0.0023323615   0.0010493202   21.164773      19.511606      1.6531674     -0.95135058     32839.698    
      2000   0.96576605     0.0023323615   0.002130637    20.854952      19.420789      1.4341626     -1.0134536      29333.856    
      3000   1.0656176      0.0023323615   0.0016304453   20.85076       19.268318      1.5824422     -1.2618109      24586.379    
      4000   1.0642678      0.0023323615   0.00071320799  20.845603      19.265165      1.5804377     -1.3022052      20003.746    
      5000   0.95680575     0.0023323615  -0.00098258357  20.079467      18.65861       1.4208565     -1.7949629      18424.223    
      6000   1.0080028      0.0023323615   0.0032807145   20.247098      18.750214      1.4968842     -1.7505402      18170.556    
      7000   1.136574       0.0023323615   0.0028978935   20.768994      19.081181      1.6878123     -1.4796798      18386.57     
      8000   1.0115914      0.0023323615   0.0024655766   20.362708      18.860495      1.5022132     -1.6446165      18542.386    
      9000   0.97634984     0.0023323615   0.00059466892  20.351776      18.901897      1.4498795     -1.6386442      18201.226    
     10000   0.97521327     0.0023323615  -0.00048629569  19.904526      18.456334      1.4481917     -1.8818054      18293.669    
     11000   0.99920481     0.0023323615   0.0014606162   20.423045      18.939226      1.4838191     -1.590848       18186.309    
     12000   1.1632934      0.0023323615   0.0003556561   20.460546      18.733055      1.7274907     -1.7400442      18320.339    
     13000   0.86150333     0.0023323615   0.0027737373   20.154108      18.874776      1.2793324     -1.6356723      18245.867    
     14000   1.0695312      0.0023323615   0.0037078541   20.329948      18.741694      1.5882539     -1.7931772      18223.481    
     15000   1.0419653      0.0023323615   0.0029098445   20.370008      18.82269       1.5473185     -1.8079847      18217.305    
     16000   1.0470514      0.0023323615   0.00021333419  20.387307      18.832436      1.5548713     -1.7456357      18329.251    
     17000   0.9875084      0.0023323615   0.00048089911  20.326851      18.860401      1.46645       -1.565693       18196.309    
     18000   1.1337696      0.0023323615   0.0018447874   20.609102      18.925454      1.6836479     -1.5588388      18189.441    
     19000   0.99221217     0.0023323615   0.00051021499  20.354774      18.881339      1.4734351     -1.5539594      18161.362    
     20000   1.0304474      0.0023323615   0.0023807466   20.258248      18.728033      1.5302144     -1.7473774      18258.451    
     21000   0.91619594     0.0023323615  -0.0011285048   20.206796      18.846245      1.360551      -1.5512323      17992.316    
     22000   1.0861723      0.0023323615   0.0015632149   20.21058       18.597614      1.6129658     -1.7301248      18159.865    
     23000   0.88088837     0.0023323615   0.0011755407   20.47665       19.16853       1.3081192     -1.4417719      18227.438    
     24000   1.1062052      0.0023323615   0.0028620228   20.262432      18.619717      1.6427147     -1.7088254      18257.973    
     25000   0.88884829     0.0023323615   0.0021873257   20.006521      18.686582      1.3199397     -1.7553323      18105.377    
     26000   0.97005076     0.0023323615  -0.0016888637   20.346216      18.90569       1.4405254     -1.5747268      18336.178    
     27000   1.0764983      0.0023323615  -0.0046581336   20.279259      18.680659      1.5985999     -1.8396793      18304.605    
     28000   1.042416       0.0023323615   0.00074483965  20.611136      19.063148      1.5479878     -1.7199925      18348.026    
     29000   0.99637802     0.0023323615  -0.0016727384   20.211283      18.731661      1.4796214     -1.741185       18351.291    
     30000   1.0280118      0.0023323615  -0.0017264407   20.461601      18.935004      1.5265975     -1.5361744      18360.71     
     31000   0.88241967     0.0023323615  -0.0015462467   20.127454      18.817061      1.3103932     -1.6954956      18191.921    
     32000   1.0451955      0.0023323615  -0.0040913373   20.278775      18.726659      1.5521154     -1.7359274      18273.456    
     33000   1.1878541      0.0023323615  -0.00055282675  20.412824      18.64886       1.7639634     -1.8139112      18100.232    
     34000   1.1165475      0.0023323615  -0.00183062     20.335876      18.677803      1.658073      -1.7660894      18173.974    
     35000   1.0137667      0.0023323615  -0.0029939285   20.105287      18.599843      1.5054436     -2.0015122      18047.782    
     36000   1.115005       0.0023323615  -0.0016259661   20.220832      18.56505       1.6557824     -1.8975207      17988.934    
     37000   0.95696245     0.0023323615  -0.004660875    20.254331      18.833242      1.4210892     -1.7068862      17970.02     
     38000   0.91317476     0.0023323615  -0.00082043355  20.219485      18.863421      1.3560645     -1.7165333      18081.844    
     39000   1.0332525      0.0023323615   0.0042817031   20.233842      18.699462      1.53438       -1.7717926      18059.26     
     40000   1.1068028      0.0023323615   0.0027222352   20.362914      18.719312      1.6436022     -1.6807341      18161.775    
     41000   0.88305914     0.0023323615  -0.00383184     20.564843      19.2535        1.3113428     -1.3674976      18369.779    
     42000   0.95444358     0.0023323615  -0.0027570808   20.402471      18.985122      1.4173487     -1.5603954      18429.479    
     43000   1.0564152      0.0023323615   0.0012510663   20.490215      18.921438      1.5687766     -1.6219181      18413.883    
     44000   1.120627       0.0023323615   0.002140616    20.63399       18.969859      1.6641311     -1.4546322      18261.02     
     45000   0.98071478     0.0023323615   0.004860468    20.405819      18.949457      1.4563614     -1.5448455      18246.858    
     46000   1.0828492      0.0023323615  -5.0560261e-05  20.483957      18.875926      1.608031      -1.5914773      18257.866    
     47000   0.91835751     0.0023323615  -0.0017789901   20.301617      18.937856      1.3637609     -1.5726174      18169.743    
     48000   0.99856112     0.0023323615  -0.00054120286  20.191193      18.70833       1.4828633     -1.7928984      18125.549    
     49000   0.94204143     0.0023323615   0.0025411978   20.168995      18.770063      1.3989315     -1.7185489      18005.802    
     50000   0.97153265     0.0023323615  -0.00046693811  20.251947      18.809221      1.442726      -1.7525139      18085.297    
     51000   1.0493193      0.0023323615   0.0022020882   20.320896      18.762657      1.5582392     -1.7434352      18016.319    
     52000   0.83015653     0.0023323615   0.004320877    20.124807      18.892025      1.2327824     -1.5677027      17938.279    
     53000   0.83998981     0.0023323615   0.0013039124   19.945719      18.698334      1.2473849     -1.8012144      18171.195    
     54000   1.031398       0.0023323615  -0.0009685858   20.417772      18.886146      1.531626      -1.6542351      18153.656    
     55000   0.94714117     0.0023323615   0.00049167615  20.378788      18.972284      1.4065046     -1.4895746      17988.544    
     56000   0.97770452     0.0023323615   0.0035175774   20.490583      19.038692      1.4518912     -1.5908985      18179.118    
     57000   0.91157307     0.0023323615   0.0025871577   20.147285      18.793599      1.353686      -1.6458918      18195.924    
     58000   0.91862399     0.0023323615  -0.0020347018   20.419159      19.055002      1.3641566     -1.6308747      18084.399    
     59000   1.0277652      0.0023323615   0.00082131481  20.106378      18.580147      1.5262313     -1.7637641      18118.109    
     60000   0.9577718      0.0023323615   0.0021467709   20.306119      18.883828      1.4222911     -1.6326228      18119.004    
     61000   0.99179781     0.0023323615  -0.0029440026   20.131439      18.658619      1.4728198     -1.851263       18249.627    
     62000   1.1164013      0.0023323615   0.0017582002   20.68981       19.031954      1.657856      -1.452187       18147.988    
     63000   1.1013259      0.0023323615   0.0021758205   20.47243       18.836961      1.635469      -1.8146208      18093.444    
     64000   0.90292873     0.0023323615  -0.00058177873  20.126122      18.785273      1.3408492     -1.733302       17974.019    
     65000   1.1082632      0.0023323615   0.00033515837  20.653045      19.007274      1.6457708     -1.5372313      17891.427    
     66000   0.96568834     0.0023323615  -0.004619043    20.498463      19.064416      1.4340472     -1.4864035      18115.972    
     67000   1.1052691      0.0023323615  -0.00053672904  20.392704      18.751379      1.6413246     -1.7345399      17937.115    
     68000   0.95300841     0.0023323615   0.0035007996   20.00147       18.586252      1.4152175     -1.8776787      17974.388    
     69000   0.93364649     0.0023323615   0.0010186419   20.277983      18.891518      1.386465      -1.6418654      18036.387    
     70000   0.88822624     0.0023323615   0.00019016019  20.116322      18.797306      1.319016      -1.6585126      17912.586    
     71000   0.97797124     0.0023323615  -0.00050208971  20.387809      18.935521      1.4522873     -1.5821748      17980.566    
     72000   1.0464954      0.0023323615  -0.0009353052   20.615641      19.061596      1.5540457     -1.5820802      18046.418    
     73000   0.91744411     0.0023323615  -0.0013806314   20.119755      18.757351      1.3624045     -1.7004729      17973.87     
     74000   0.94360019     0.0023323615   0.0041642098   20.415282      19.014036      1.4012463     -1.5310107      18099.12     
     75000   1.0397908      0.0023323615  -0.000100147    20.586602      19.042513      1.5440893     -1.431881       18193.284    
     76000   1.0030959      0.0023323615  -0.0016459495   20.312032      18.822435      1.4895975     -1.580834       18497.668    
     77000   1.0821491      0.0023323615   0.00088151181  20.53909       18.932098      1.6069914     -1.6392989      18485.041    
     78000   1.0865652      0.0023323615  -0.0022557853   20.500842      18.887292      1.6135493     -1.539009       18131.459    
     79000   0.90873935     0.0023323615   0.0022914919   20.258801      18.909323      1.3494779     -1.6341141      18119.073    
     80000   1.103018       0.0023323615  -0.0038180382   20.527282      18.889301      1.6379817     -1.6555031      17911.182    
     81000   0.99427629     0.0023323615   0.0013808932   20.179697      18.703197      1.4765003     -1.7707098      18183.125    
     82000   1.0452454      0.0023323615  -0.00019673706  20.476623      18.924433      1.5521894     -1.7151893      18005.013    
     83000   1.0692301      0.0023323615   0.0019912931   20.51453       18.926723      1.5878066     -1.5764716      18146.058    
     84000   0.94985969     0.0023323615  -0.00051982831  20.19731       18.786769      1.4105416     -1.7130212      18071.008    
     85000   1.0594043      0.0023323615   0.0013681395   20.504446      18.931231      1.5732154     -1.6745759      18022.148    
     86000   0.98330064     0.0023323615  -0.0021122337   20.428002      18.9678        1.4602015     -1.6766396      18135.863    
     87000   1.0667278      0.0023323615  -0.0017796906   20.673434      19.089344      1.5840908     -1.4945901      18182.711    
     88000   0.93276865     0.0023323615   0.0052125611   20.152057      18.766896      1.3851614     -1.8255048      18274.962    
     89000   1.1774544      0.0023323615   0.0029686561   20.437944      18.689424      1.7485198     -1.8005272      18270.811    
     90000   0.87541209     0.0023323615   0.00020649827  19.737202      18.437215      1.2999869     -1.845266       18165.447    
     91000   0.97050974     0.0023323615   0.0016982593   20.012947      18.57174       1.441207      -1.9579565      18064.515    
     92000   0.91674348     0.0023323615   3.7561837e-05  20.31716       18.955796      1.3613641     -1.5134059      18005.159    
     93000   0.98715789     0.0023323615  -0.0010861698   20.3877        18.921771      1.4659295     -1.6001841      18014.612    
     94000   0.99192383     0.0023323615  -0.005912387    20.552227      19.07922       1.4730069     -1.4344313      18154.015    
     95000   0.90510769     0.0023323615  -0.0001861106   20.320002      18.975917      1.3440849     -1.6430996      18245.451    
     96000   1.0574784      0.0023323615   0.0040613591   20.449949      18.879593      1.5703554     -1.6898397      18402.113    
     97000   1.0215146      0.0023323615  -0.0038648816   20.523385      19.006436      1.5169493     -1.4249784      18385.012    
     98000   0.90921607     0.0023323615  -0.0035180578   20.381182      19.030996      1.3501859     -1.5630894      18354.079    
     99000   1.0818423      0.0023323615  -0.0004093042   20.668513      19.061977      1.6065358     -1.6119972      18286.828    
    100000   0.97287455     0.0023323615  -0.0030534839   20.481314      19.036596      1.4447187     -1.4594071      18220.913    
    101000   0.9026925      0.0023323615   0.0019796063   20.115852      18.775354      1.3404984     -1.6914197      18166.601    
    102000   1.1004214      0.0023323615  -0.0030903203   20.491219      18.857093      1.6341258     -1.7133145      18132.925    
    103000   0.97178632     0.0023323615   0.0041358529   20.412383      18.969281      1.4431027     -1.6746518      18280.317    
    104000   1.0183704      0.0023323615  -0.0026976014   20.160691      18.648411      1.51228       -1.9284998      18318.544    
    105000   1.0403512      0.0023323615  -0.0031813126   20.515698      18.970777      1.5449215     -1.625544       18352.168    
    106000   0.99253288     0.0023323615  -0.0031239127   20.433597      18.959686      1.4739113     -1.6485232      18105.499    
    107000   0.9602539      0.0023323615   0.002942381    20.161464      18.735486      1.425977      -1.7979254      17974.861    
    108000   1.0205961      0.0023323615  -0.0018331029   20.092759      18.577174      1.5155852     -1.8839365      18056.774    
    109000   0.94516527     0.0023323615  -0.0028570909   20.193931      18.79036       1.4035704     -1.6900722      18140.204    
    110000   1.0158397      0.0023323615  -0.005158646    20.17203       18.663508      1.508522      -1.835832       18171.036    
    111000   0.95657665     0.0023323615   0.0026895241   20.071031      18.650514      1.4205163     -1.8845415      18143.162    
    112000   0.99231793     0.0023323615   0.00061761679  20.279418      18.805826      1.4735921     -1.8120147      17997.565    
    113000   1.0077849      0.0023323615   0.0020588951   20.25701       18.76045       1.4965606     -1.799309       17989.566    
    114000   0.96211921     0.0023323615   0.0013023305   20.330142      18.901395      1.428747      -1.5580678      18112.638    
    115000   1.1718358      0.0023323615   0.0024142667   20.64631       18.906133      1.7401762     -1.6264492      18144.164    
    116000   1.0091704      0.0023323615   0.0022498654   20.070987      18.572369      1.4986181     -1.8892137      18140.435    
    117000   0.91252797     0.0023323615   0.00053395974  20.062104      18.707         1.355104      -1.8731509      18052.326    
    118000   1.0410709      0.0023323615   0.001378891    20.564332      19.018342      1.5459903     -1.6430608      18199.826    
    119000   0.96882312     0.0023323615  -0.0019689144   20.109574      18.670872      1.4387023     -1.7642601      18098.25     
    120000   1.0969063      0.0023323615   0.0035069554   20.596554      18.967648      1.6289059     -1.5571935      18211.677    
    121000   0.84409321     0.0023323615   0.0013134914   20.19676       18.943282      1.2534784     -1.6436878      18242.336    
    122000   1.174092       0.0023323615   0.0029883859   20.737091      18.993565      1.7435266     -1.5413965      18258.18     
    123000   1.1075351      0.0023323615  -0.0027526845   20.448748      18.804059      1.6446897     -1.6573131      18138.022    
    124000   1.0322495      0.0023323615  -0.0015691406   20.356213      18.823322      1.5328905     -1.7562631      18138.098    
    125000   1.1342604      0.0023323615  -0.0012780323   20.286281      18.601904      1.6843767     -1.9216004      18110.315    
    126000   0.95612445     0.0023323615  -0.0047273209   20.335137      18.915292      1.4198448     -1.5918332      18239.519    
    127000   1.0039432      0.0023323615   0.00047227143  20.213194      18.722338      1.4908556     -1.8318096      18006.79     
    128000   1.0138096      0.0023323615  -0.0027283511   20.487509      18.982001      1.5055072     -1.6086623      18016.905    
    129000   0.96315413     0.0023323615  -0.0023000924   20.518054      19.08777       1.4302839     -1.5556187      18082.318    
    130000   1.0215613      0.0023323615   0.003239152    20.501262      18.984244      1.5170186     -1.5840505      18192.916    
    131000   1.0709859      0.0023323615   0.00077338255  20.34731       18.756896      1.5904141     -1.8231596      18386.726    
    132000   1.1265451      0.0023323615  -0.00078936286  20.612913      18.939994      1.6729195     -1.5668864      18304.192    
    133000   0.88586473     0.0023323615   0.0012071227   20.17281       18.857301      1.3155091     -1.6828077      18264.826    
    134000   0.99715618     0.0023323615  -0.0012953588   20.207757      18.72698       1.4807769     -1.8834276      18243.573    
    135000   0.85611935     0.0023323615   0.0011070059   20.003315      18.731978      1.2713372     -1.866202       18141.091    
    136000   1.0517362      0.0023323615  -0.0047444656   20.482549      18.92072       1.5618282     -1.6537361      18047.328    
    137000   0.97029379     0.0023323615  -0.00071799064  20.287539      18.846652      1.4408863     -1.7493142      18153.256    
    138000   1.1766078      0.0023323615   0.0012237082   20.677435      18.930173      1.7472626     -1.5824911      18115.005    
    139000   0.86969918     0.0023323615   0.0016812719   19.80995       18.518447      1.2915033     -1.9223514      18092.457    
    140000   1.2287475      0.0023323615  -0.0014643802   20.758759      18.934069      1.82469       -1.6282526      18182.963    
    141000   0.98036715     0.0023323615  -0.0013998015   20.22403       18.768185      1.4558452     -1.8036191      18124.479    
    142000   0.91298847     0.0023323615   0.0014653572   20.324907      18.969119      1.3557879     -1.6734626      18186.071    
    143000   0.98281366     0.0023323615   0.0027063435   20.243377      18.783899      1.4594783     -1.8440386      18139.98     
    144000   0.98472307     0.0023323615   0.0019200102   20.187023      18.724709      1.4623138     -1.8126664      18135.999    
    145000   1.0896909      0.0023323615  -0.00023188829  20.234485      18.616294      1.6181911     -1.8076891      18212.013    
    146000   1.0948294      0.0023323615  -0.0032489999   20.512883      18.887061      1.6258217     -1.6416032      18303.518    
    147000   0.79006934     0.0023323615  -0.0025241116   19.974741      18.801488      1.173253      -1.7155521      18254.694    
    148000   0.85996805     0.0023323615  -0.0010716182   20.145107      18.868054      1.2770526     -1.6402779      18249.978    
    149000   1.0782257      0.0023323615   0.0037617501   20.488438      18.887273      1.6011651     -1.6839692      18214.482    
    150000   1.010414       0.0023323615  -0.0023822917   20.344397      18.843932      1.5004648     -1.6292812      18294.768    
    151000   0.84790001     0.0023323615   0.00099569844  20.450082      19.19095       1.2591315     -1.4159952      18508.281    
    152000   1.0408846      0.0023323615   0.00154574     20.263029      18.717315      1.5457137     -1.66548        18304.075    
    153000   0.9979087      0.0023323615   0.00048830099  20.047327      18.565433      1.4818944     -1.879345       18138.757    
    154000   1.0392906      0.0023323615   0.003197469    20.308774      18.765427      1.5433465     -1.7960292      18043.88     
    155000   1.0005205      0.0023323615   0.0020659755   20.064465      18.578692      1.4857729     -1.8820787      18176.443    
    156000   0.93033237     0.0023323615   0.0061390181   19.971148      18.589604      1.3815436     -1.9418681      18158.276    
    157000   0.99065827     0.0023323615   0.0011401354   20.380186      18.909058      1.4711275     -1.7356454      18295.814    
    158000   0.96980033     0.0023323615  -6.6786125e-05  20.157209      18.717055      1.4401535     -1.8559853      18188.079    
    159000   0.88965291     0.0023323615   0.003232419    19.697174      18.37604       1.3211346     -1.9780915      18146.108    
    160000   1.037829       0.0023323615   0.001708179    20.289176      18.748         1.5411761     -1.7385159      18354.136    
    161000   0.95236893     0.0023323615   0.00099294387  20.034189      18.619921      1.4142679     -2.0304172      18248.923    
    162000   0.86724723     0.0023323615   0.0004133627   19.99998       18.712118      1.2878621     -1.6781755      18249.207    
    163000   0.91897235     0.0023323615  -0.003822295    20.318502      18.953828      1.3646739     -1.6248039      18343.851    
    164000   0.9628643      0.0023323615  -0.00098491566  20.206099      18.776245      1.4298535     -1.7165049      18177.926    
    165000   1.0403843      0.0023323615  -0.00093889972  20.355743      18.810773      1.5449707     -1.7940456      18176.079    
    166000   0.98871845     0.0023323615  -0.0037711954   20.669847      19.2016        1.4682469     -1.3770907      18295.305    
    167000   0.94540419     0.0023323615  -0.0022845107   20.422666      19.018741      1.4039252     -1.529866       18294.446    
    168000   1.0445002      0.0023323615  -0.0032959743   20.592692      19.041609      1.5510828     -1.4593228      18416.262    
    169000   0.87226834     0.0023323615  -0.0020104038   20.048505      18.753186      1.2953185     -1.70385        18261.735    
    170000   1.0230644      0.0023323615  -0.00097114226  20.434194      18.914943      1.5192506     -1.568251       18275.233    
    171000   1.002511       0.0023323615   0.0057815075   20.232586      18.743858      1.4887289     -1.7217729      18115.153    
    172000   0.96425262     0.0023323615  -0.0050707542   20.202612      18.770697      1.4319151     -1.6732961      18282.587    
    173000   0.91222609     0.0023323615  -0.0014332158   20.268831      18.914175      1.3546557     -1.7445655      18284.419    
    174000   0.99777954     0.0023323615  -0.0023706894   20.135324      18.653621      1.4817026     -1.8270608      18238.45     
    175000   0.98629385     0.0023323615   0.0012288345   20.139394      18.674747      1.4646464     -1.8230243      18243.247    
    176000   0.91983766     0.0023323615   0.0025944271   20.19532       18.829361      1.3659589     -1.6656284      18288.319    
    177000   1.0648387      0.0023323615   0.0012178899   20.456828      18.875543      1.5812854     -1.6979396      18174.127    
    178000   1.0656479      0.0023323615  -0.00092937804  20.432406      18.849919      1.5824872     -1.6786657      18222.506    
    179000   0.9136965      0.0023323615   0.00023710221  20.224439      18.867599      1.3568393     -1.6446696      18330.8      
    180000   1.0024186      0.0023323615  -0.00025487646  20.192226      18.703635      1.4885917     -1.7860325      18217.192    
    181000   0.85550983     0.0023323615  -0.0024632255   20.141713      18.871281      1.2704321     -1.6855459      18364.325    
    182000   0.93306363     0.0023323615  -0.0014726743   20.244255      18.858655      1.3855995     -1.6903785      18388.647    
    183000   1.0000922      0.0023323615   0.0020566929   20.252328      18.767191      1.4851369     -1.7421408      18231.091    
    184000   1.0525173      0.0023323615   0.0023393324   20.662287      19.099299      1.5629881     -1.4299141      18378.587    
    185000   0.95539343     0.0023323615  -0.00014208552  20.221554      18.802795      1.4187592     -1.5953868      18511.027    
    186000   1.1508961      0.0023323615   0.0020138636   20.566493      18.857412      1.7090807     -1.708641       18328.763    
    187000   1.1863527      0.0023323615  -0.0011121725   20.403879      18.642145      1.7617337     -1.8436703      18138.002    
    188000   1.0046002      0.0023323615   0.00038838334  20.546473      19.054641      1.4918313     -1.4540417      18117.606    
    189000   1.1267627      0.0023323615   0.00041961831  20.518436      18.845194      1.6732426     -1.755335       17834.755    
    190000   0.98205316     0.0023323615  -0.00042947143  20.309292      18.850943      1.4583489     -1.561782       18059.959    
    191000   1.0173696      0.0023323615   0.003601814    20.222653      18.711859      1.5107939     -1.7713991      18007.079    
    192000   0.89387955     0.0023323615  -0.0011112758   20.176959      18.849548      1.3274111     -1.7186551      18060.975    
    193000   1.0612198      0.0023323615   0.0012037871   20.447188      18.871277      1.5759115     -1.7114164      18022.211    
    194000   0.98599941     0.0023323615  -0.00062197453  20.300704      18.836494      1.4642091     -1.6507765      18142.337    
    195000   0.9181444      0.0023323615   0.0019940208   20.077114      18.713669      1.3634444     -1.8338483      18156.552    
    196000   1.1849818      0.0023323615  -0.00055804264  20.704775      18.945077      1.759698      -1.5469033      17942.2      
    197000   0.98997626     0.0023323615   0.0013243856   20.398131      18.928016      1.4701148     -1.5621627      18221.568    
    198000   1.0946142      0.0023323615  -0.0016754706   20.212749      18.587247      1.6255021     -1.8967304      18270.202    
    199000   0.96091829     0.0023323615  -0.00082185123  20.580794      19.15383       1.4269637     -1.4212075      18124.712    
    200000   1.0062861      0.0023323615  -0.00056702306  20.435949      18.941614      1.4943348     -1.4852737      18110.154    
    201000   1.0286205      0.0023323615   0.00029419164  20.588953      19.061451      1.5275015     -1.538329       18125.729    
    202000   1.0464393      0.0023323615  -0.00089320426  20.37466       18.820698      1.5539623     -1.6821829      18293.957    
    203000   0.91123578     0.0023323615   0.0027469602   20.351766      18.998581      1.3531851     -1.5481692      18442.361    
    204000   0.93134414     0.0023323615  -0.00024785496  20.360524      18.977478      1.383046      -1.5916167      18145.735    
    205000   1.0321472      0.0023323615  -0.0034343981   20.088966      18.556227      1.5327386     -2.0191966      18033.695    
    206000   0.9247656      0.0023323615  -0.0019828458   20.178858      18.805581      1.3732769     -1.7035878      18126.677    
    207000   1.0340113      0.0023323615  -0.00042603948  20.25518       18.719673      1.5355067     -1.6784087      18220.205    
    208000   0.99806476     0.0023323615   0.001311442    20.450024      18.967898      1.4821262     -1.6869032      18060.194    
    209000   1.0322086      0.0023323615   0.0033390465   20.406188      18.873359      1.5328297     -1.5970936      18246.124    
    210000   1.1223098      0.0023323615   0.0035546245   20.640526      18.973896      1.66663       -1.5080216      18334.039    
    211000   1.1361798      0.0023323615   0.00044562603  20.726847      19.03962       1.6872271     -1.5357149      18345.658    
    212000   0.99165133     0.0023323615  -0.00099257808  20.535889      19.063286      1.4726022     -1.4803017      18391.676    
    213000   1.0161423      0.0023323615  -0.0036632088   20.606832      19.09786       1.5089713     -1.4723661      18322.64     
    214000   0.93572811     0.0023323615  -0.0017498053   20.598521      19.208965      1.3895562     -1.4507078      18194.106    
    215000   0.95515844     0.0023323615  -0.0013474534   20.595604      19.177193      1.4184103     -1.4028735      18280.763    
    216000   0.92164916     0.0023323615   0.0019529238   20.247341      18.878692      1.368649      -1.6443943      18211.963    
    217000   0.90163787     0.0023323615   0.0028357147   20.234063      18.895131      1.3389322     -1.5579993      18223.618    
    218000   0.98061732     0.0023323615  -0.0011409821   20.449869      18.993653      1.4562167     -1.4780471      18336.494    
    219000   0.99864445     0.0023323615   0.0016384679   20.463851      18.980864      1.482987      -1.5513158      18415.1      
    220000   1.0013564      0.0023323615   0.003102378    20.579549      19.092535      1.4870142     -1.554188       18185.371    
    221000   1.1138934      0.0023323615   1.8474823e-05  20.486205      18.832073      1.6541317     -1.738098       18517.422    
    222000   0.99804732     0.0023323615   0.0023618332   20.256756      18.774656      1.4821003     -1.675127       18408.551    
    223000   0.8152664      0.0023323615   0.00067399366  19.947264      18.736593      1.2106706     -1.6541594      18172.396    
    224000   0.91722374     0.0023323615   0.00042062394  20.435216      19.073138      1.3620773     -1.5563672      18257.803    
    225000   0.95517099     0.0023323615  -0.00023326084  20.432268      19.013839      1.4184289     -1.5497815      18219.397    
    226000   0.97686102     0.0023323615   0.003362249    20.309544      18.858906      1.4506386     -1.559861       18274.005    
    227000   1.0524735      0.0023323615  -0.0021146362   20.457038      18.894115      1.5629231     -1.556652       18196.836    
    228000   1.0702143      0.0023323615   0.000119663    20.518814      18.929546      1.5892682     -1.6206811      18277.696    
    229000   1.0309148      0.0023323615  -0.0035995049   20.332498      18.801589      1.5309086     -1.7022353      18127.747    
    230000   1.0539358      0.0023323615   0.00094207672  20.173609      18.608514      1.5650947     -1.7767537      18177.231    
    231000   0.83113669     0.0023323615   0.00041368683  19.844141      18.609903      1.234238      -1.8399689      18158.388    
    232000   0.9196883      0.0023323615  -0.0013078479   20.315076      18.949339      1.3657371     -1.7478531      18011.767    
    233000   1.253487       0.0023323615   0.0021508238   20.463122      18.601694      1.8614282     -1.8972667      18058.332    
    234000   1.1492986      0.0023323615   0.0027010934   20.601094      18.894385      1.7067084     -1.5800734      18017.191    
    235000   0.86521896     0.0023323615  -0.0015179205   20.224158      18.939308      1.2848502     -1.6427071      17949.16     
    236000   0.8184971      0.0023323615  -0.0035250446   19.938685      18.723217      1.2154682     -1.8760814      17887.15     
    237000   1.0359821      0.0023323615  -0.0062620948   20.252811      18.714378      1.5384334     -1.76722        17876.581    
    238000   1.1100064      0.0023323615   0.001171317    20.334682      18.686322      1.6483595     -1.7853633      17899.255    
    239000   0.95241271     0.0023323615  -0.0010132997   20.380308      18.965976      1.4143329     -1.6507433      17946.049    
    240000   0.98260687     0.0023323615  -0.0055860399   20.303931      18.84476       1.4591712     -1.7451493      18102.809    
    241000   1.0383179      0.0023323615   0.0013092449   20.201967      18.660065      1.5419021     -1.7852095      18039.601    
    242000   1.1605897      0.0023323615   0.0035044013   20.311824      18.588349      1.7234758     -1.9002524      18078.752    
    243000   1.0281421      0.0023323615   2.2071254e-05  20.126632      18.599841      1.526791      -1.8500236      18086.513    
    244000   1.0213048      0.0023323615  -0.0036974445   20.436691      18.920053      1.5166377     -1.6205299      18325.361    
    245000   0.94637471     0.0023323615   0.0041732071   20.148076      18.74271       1.4053664     -1.7628678      18243.57     
    246000   1.0003554      0.0023323615   0.0018570815   20.373326      18.887799      1.4855278     -1.6397645      18162.948    
    247000   0.88204166     0.0023323615  -0.0030822618   20.08422       18.774388      1.3098319     -1.8185822      18294.966    
    248000   1.1972855      0.0023323615  -0.00054133805  20.56139       18.783421      1.777969      -1.6077419      18130.082    
    249000   1.2029223      0.0023323615  -0.0017217146   20.714346      18.928006      1.7863397     -1.5749735      18362.895    
    250000   0.98577206     0.0023323615   0.0027356505   20.279933      18.816062      1.4638715     -1.6243619      18409.193    
    251000   1.0547775      0.0023323615   0.0013425736   20.578756      19.012412      1.5663446     -1.5624464      18309.75     
    252000   0.89278827     0.0023323615   0.0019591908   20.497418      19.171627      1.3257906     -1.391634       18382.077    
    253000   1.0106235      0.0023323615   0.0028626125   20.274915      18.774139      1.5007758     -1.8145577      18033.376    
    254000   0.95496655     0.0023323615   0.0026265221   20.531698      19.113572      1.4181253     -1.4471397      18134.908    
    255000   0.95029079     0.0023323615   0.00083330445  20.070169      18.658987      1.4111818     -1.8133361      18155.934    
    256000   1.0252875      0.0023323615   0.0016010992   20.54865       19.026098      1.5225519     -1.5422752      18174.309    
    257000   0.98758883     0.0023323615   0.0014478208   20.32731       18.86074       1.4665694     -1.6308103      18287.568    
    258000   1.0757779      0.0023323615   0.00093680975  20.536857      18.939327      1.5975302     -1.4749259      18326.69     
    259000   1.0693362      0.0023323615   0.004550645    20.402415      18.814451      1.5879643     -1.6396472      18142.357    
    260000   0.95297943     0.0023323615  -0.004886133    20.173879      18.758705      1.4151745     -1.8120621      18162.122    
    261000   0.98183288     0.0023323615  -0.0016219588   20.353533      18.895512      1.4580218     -1.6580111      18031.548    
    262000   0.97445127     0.0023323615   0.00072022634  20.310242      18.863182      1.4470601     -1.6723097      18129.891    
    263000   0.9554218      0.0023323615  -0.00047778119  20.441269      19.022468      1.4188014     -1.5722645      18009.33     
    264000   1.1370463      0.0023323615   0.0032030686   20.548295      18.859781      1.6885137     -1.6172381      18090.866    
    265000   1.0345567      0.0023323615   0.0040415453   20.417124      18.880807      1.5363167     -1.558335       18099.714    
    266000   1.0724922      0.0023323615   0.0018088358   20.445478      18.852827      1.5926509     -1.6163404      18230.065    
    267000   0.96014381     0.0023323615  -0.0055633406   20.483363      19.057549      1.4258136     -1.5003135      18235.017    
    268000   1.0964803      0.0023323615  -0.00096579972  20.477032      18.848759      1.6282732     -1.6048619      18125.275    
    269000   0.94478229     0.0023323615  -0.0011389965   20.651731      19.248729      1.4030017     -1.3161144      18188.987    
    270000   1.0566631      0.0023323615   0.001964956    20.452737      18.883593      1.5691446     -1.6563259      18296.311    
    271000   1.0493454      0.0023323615  -0.0014636967   20.54055       18.982272      1.5582779     -1.5805429      18265.524    
    272000   1.1741335      0.0023323615   0.0020637769   20.513904      18.770315      1.7435883     -1.7074265      18127.221    
    273000   1.0109216      0.0023323615  -0.0041770855   20.415115      18.913897      1.5012185     -1.5535147      18250.682    
    274000   1.0693348      0.0023323615  -0.00080610307  20.521332      18.93337       1.5879622     -1.6833745      18176.099    
    275000   1.1061796      0.0023323615  -0.00052809501  20.630674      18.987998      1.6426766     -1.5619139      18112.665    
    276000   1.0065598      0.0023323615   0.003628153    20.459332      18.964591      1.4947413     -1.5397818      18111.833    
    277000   1.0283743      0.0023323615   0.002255543    20.208299      18.681163      1.5271359     -1.7613705      18039.995    
    278000   0.93169507     0.0023323615   0.0039213007   20.292922      18.909355      1.3835672     -1.7707579      18120.849    
    279000   1.058452       0.0023323615  -0.0039924427   20.36306       18.791259      1.5718013     -1.6837756      18147.846    
    280000   0.96479033     0.0023323615  -0.0019138642   20.151653      18.718939      1.4327136     -1.7124647      18127.909    
    281000   0.99016345     0.0023323615  -0.00093139414  20.444667      18.974274      1.4703927     -1.5249494      18191.842    
    282000   0.89746431     0.0023323615  -0.006150058    20.163214      18.830479      1.3327345     -1.6827175      18151.054    
    283000   0.91619258     0.0023323615  -0.0014864376   20.38039       19.019844      1.360546      -1.5904494      18134.173    
    284000   1.0350483      0.0023323615   0.00055183987  20.134497      18.59745       1.5370468     -1.9515867      18199.235    
    285000   0.92668823     0.0023323615  -0.00072585341  20.257297      18.881165      1.376132      -1.7273381      18291.513    
    286000   1.06457        0.0023323615   0.00027470221  20.47449       18.893603      1.5808865     -1.6232197      18165.956    
    287000   0.91174408     0.0023323615   0.003022621    20.269578      18.915638      1.35394       -1.5513194      18112.474    
    288000   1.1450333      0.0023323615   0.0020468239   20.419398      18.719023      1.7003744     -1.7944729      18222.813    
    289000   1.0283447      0.0023323615  -0.0022779526   20.515271      18.988179      1.5270919     -1.4965828      18208.123    
    290000   0.90552768     0.0023323615  -0.0025062165   19.859935      18.515227      1.3447086     -1.9418284      18088.889    
    291000   0.87940073     0.0023323615  -0.004626955    20.165082      18.859172      1.3059101     -1.77922        17998.785    
    292000   0.960181       0.0023323615   0.00060306861  20.424815      18.998946      1.4258688     -1.5751619      18151.275    
    293000   0.94827243     0.0023323615  -1.5247608e-05  20.099468      18.691283      1.4081846     -1.8657316      18154.339    
    294000   0.87372475     0.0023323615   0.00091860735  20.234299      18.936818      1.2974813     -1.5872886      18151.041    
    295000   1.1020897      0.0023323615   0.0014621199   20.864267      19.227664      1.6366031     -1.4822272      18351.649    
    296000   0.99285207     0.0023323615  -0.0014790045   20.327184      18.852798      1.4743853     -1.7156259      18247.619    
    297000   0.89564724     0.0023323615   0.0040249952   20.442656      19.11262       1.3300362     -1.5313019      18137.422    
    298000   0.98192683     0.0023323615  -0.0010774749   20.217268      18.759107      1.4581613     -1.7478003      18061.956    
    299000   1.0354835      0.0023323615  -0.0030599266   20.263792      18.726099      1.5376931     -1.6819329      18052.698    
    300000   0.85915759     0.0023323615  -0.0021028719   20.234579      18.95873       1.275849      -1.5663054      18048.95     
    301000   1.0447895      0.0023323615   0.0032986212   20.613032      19.06152       1.5515124     -1.5304982      18002.265    
    302000   1.1652519      0.0023323615  -0.0011430408   20.633641      18.903242      1.7303991     -1.6345325      18003.593    
    303000   1.0820374      0.0023323615   0.0029345344   20.497413      18.890587      1.6068255     -1.6751296      18085.244    
    304000   0.84857676     0.0023323615  -0.0031813303   20.285208      19.025072      1.2601365     -1.5659523      18105.722    
    305000   0.92482538     0.0023323615  -0.00040455979  20.344166      18.9708        1.3733657     -1.5186288      18327.155    
    306000   1.0095966      0.0023323615  -0.0015837071   20.02457       18.525319      1.499251      -1.8508207      18004.649    
    307000   1.0299497      0.0023323615  -0.0033591322   20.456963      18.927488      1.5294753     -1.6497414      18077.963    
    308000   0.95018383     0.0023323615   0.0044441368   20.374634      18.963611      1.411023      -1.5461519      18189.508    
    309000   1.0075027      0.0023323615   0.0014234455   20.422566      18.926424      1.4961416     -1.505716       18182.88     
    310000   0.99666641     0.0023323615  -0.00012635578  20.37417       18.89412       1.4800496     -1.6446371      18137.238    
    311000   1.0995303      0.0023323615  -0.00026855059  20.553392      18.92059       1.6328025     -1.5041041      18257.659    
    312000   1.064131       0.0023323615  -0.0016535346   20.540317      18.960082      1.5802345     -1.5118902      18228.514    
    313000   0.98848733     0.0023323615  -0.002931141    20.327541      18.859637      1.4679037     -1.5234112      18303.337    
    314000   1.1158182      0.0023323615  -0.0014505709   20.509847      18.852858      1.65699       -1.694226       18245.127    
    315000   0.90086187     0.0023323615  -0.002179646    20.288655      18.950875      1.3377799     -1.6316421      18317.818    
    316000   0.86978489     0.0023323615  -0.0029901874   20.408088      19.116457      1.2916306     -1.5008929      18316.853    
    317000   0.97448304     0.0023323615  -0.0026284471   20.596692      19.149584      1.4471073     -1.5385691      18296.754    
    318000   0.86053877     0.0023323615  -6.6044715e-05  19.944681      18.666781      1.2779001     -1.7629008      18204.662    
    319000   1.02408        0.0023323615  -0.0027014379   20.103561      18.582803      1.5207588     -1.9277881      18160.989    
    320000   0.97674467     0.0023323615  -6.3126051e-05  20.306581      18.856115      1.4504658     -1.5925589      18045.237    
    321000   1.0230127      0.0023323615  -0.00074688775  20.282782      18.763608      1.5191739     -1.6622889      18205.944    
    322000   1.1283054      0.0023323615   0.00057874731  20.531003      18.855469      1.6755335     -1.6216967      18269.406    
    323000   0.99108547     0.0023323615  -0.0028977958   20.720161      19.248399      1.4717619     -1.396731       18190.84     
    324000   1.0074634      0.0023323615  -0.0019885114   20.456959      18.960876      1.4960831     -1.5850937      18292.247    
    325000   1.1001784      0.0023323615   0.0011997053   20.44852       18.814755      1.6337649     -1.7792057      18373.793    
    326000   1.0253017      0.0023323615  -0.0013096696   20.419586      18.897013      1.522573      -1.5640102      18483.059    
    327000   0.99524126     0.0023323615   0.0019012928   20.641505      19.163571      1.4779333     -1.4483322      18412.045    
    328000   1.014029       0.0023323615  -0.00015200075  20.331366      18.825533      1.5058331     -1.6560043      18413.866    
    329000   0.8861278      0.0023323615  -0.0018078994   20.126418      18.810518      1.3158998     -1.7015928      18339.84     
    330000   0.96804754     0.0023323615  -0.0027558724   20.719836      19.282286      1.4375506     -1.4455459      18327.41     
    331000   1.0092892      0.0023323615  -0.0022437936   20.379959      18.881165      1.4987945     -1.644221       18318.019    
    332000   1.0373999      0.0023323615   0.00038447717  20.08152       18.540981      1.5405388     -1.862497       18060.087    
    333000   0.98363086     0.0023323615   0.0018044011   20.159605      18.698913      1.4606918     -1.7111645      18210.405    
    334000   0.92886181     0.0023323615  -0.0013265642   20.155187      18.775827      1.3793598     -1.7804646      18226.536    
    335000   0.98227123     0.0023323615  -0.0027931144   20.290924      18.832251      1.4586728     -1.6132214      17939.904    
    336000   0.95643144     0.0023323615  -0.0014007155   20.166157      18.745856      1.4203007     -1.7511477      18086.703    
    337000   0.97178842     0.0023323615   0.0013123741   20.343257      18.900151      1.4431058     -1.7000272      18092.513    
    338000   1.0612816      0.0023323615  -0.00023486623  20.365255      18.789252      1.5760031     -1.6493049      18043.237    
    339000   1.1014093      0.0023323615   0.0025946235   20.41324       18.777647      1.6355928     -1.6837336      18094.733    
    340000   0.95620692     0.0023323615   0.0015365999   20.2296        18.809633      1.4199673     -1.6911812      18241.816    
    341000   0.9709923      0.0023323615   0.0014041469   20.071113      18.629189      1.4419236     -1.826518       18353.441    
    342000   1.1153777      0.0023323615   0.0011587198   20.371501      18.715165      1.6563359     -1.8154197      18256.2      
    343000   1.0198753      0.0023323615   0.0021922259   20.014982      18.500467      1.5145148     -1.9670038      18318.544    
    344000   0.91296185     0.0023323615  -0.00098092927  20.052835      18.697087      1.3557483     -1.832026       18294.369    
    345000   0.97950106     0.0023323615  -0.00086133363  20.433154      18.978595      1.4545591     -1.6240691      18236.06     
    346000   0.81005377     0.0023323615  -0.00065509297  20.230302      19.027372      1.2029298     -1.552065       18371.838    
    347000   0.86046022     0.0023323615  -0.0017704811   19.882567      18.604783      1.2777834     -1.9045566      18297.022    
    348000   0.97053681     0.0023323615  -0.0010261978   20.484391      19.043144      1.4412472     -1.6694982      18207.435    
    349000   1.0948425      0.0023323615  -0.0017065603   20.516001      18.89016       1.6258411     -1.7489979      18226.19     
    350000   0.96579636     0.0023323615   0.00014741689  20.548324      19.114116      1.4342076     -1.481718       18050.191    
    351000   1.1101939      0.0023323615   0.0015345866   20.239723      18.591085      1.6486379     -1.8406629      18220.89     
    352000   0.84653235     0.0023323615   0.0013660014   20.070168      18.813067      1.2571005     -1.801821       18282.135    
    353000   0.92201815     0.0023323615   0.0010201111   20.191876      18.822679      1.369197      -1.7012251      18243.186    
    354000   1.0667346      0.0023323615   0.0028146457   20.463963      18.879862      1.5841008     -1.6368083      18295.872    
    355000   1.1718602      0.0023323615  -0.0021079802   20.697392      18.95718       1.7402124     -1.5577348      18245.864    
    356000   0.99133459     0.0023323615  -0.0012673974   20.344212      18.87208       1.4721319     -1.5932576      18215.51     
    357000   0.8998773      0.0023323615   0.00036708642  20.40577       19.069452      1.3363178     -1.3484766      18360.156    
    358000   0.8943656      0.0023323615  -0.00036669858  20.243964      18.915831      1.3281329     -1.6959513      18162.403    
    359000   1.0030373      0.0023323615  -0.0017426784   20.325946      18.836436      1.4895104     -1.7116635      18352.418    
    360000   0.89763406     0.0023323615  -0.00023823575  20.469732      19.136745      1.3329866     -1.5997114      18337.104    
    361000   0.92919045     0.0023323615  -0.002448694    20.234451      18.854604      1.3798478     -1.6740438      18409.879    
    362000   0.89735332     0.0023323615   0.0022006614   20.163631      18.831061      1.3325697     -1.6911299      18313.059    
    363000   1.0645327      0.0023323615   0.0014487487   20.386776      18.805945      1.580831      -1.6425549      18428.261    
    364000   1.154784       0.0023323615  -0.0033013256   20.488117      18.773263      1.7148542     -1.7382614      18343.999    
    365000   0.97097662     0.0023323615  -0.0035583475   19.941981      18.500081      1.4419003     -1.9675483      18272.389    
    366000   0.8991447      0.0023323615  -0.00062249879  20.232345      18.897115      1.3352299     -1.7488125      18389.372    
    367000   0.92139724     0.0023323615  -0.0013340128   20.398138      19.029863      1.3682749     -1.6301604      18484.948    
    368000   0.87798547     0.0023323615  -0.00090618873  20.005691      18.701882      1.3038084     -1.7822276      18390.642    
    369000   0.94000735     0.0023323615  -0.0020970364   20.012404      18.616493      1.3959109     -1.8650176      18196.014    
    370000   0.94511047     0.0023323615  -0.0011806402   20.076826      18.673337      1.403489      -1.9049594      18214.595    
    371000   0.97501434     0.0023323615  -0.00019759409  19.990571      18.542674      1.4478963     -1.9162495      18021.963    
    372000   1.0077383      0.0023323615  -0.0028371892   20.307422      18.810931      1.4964914     -1.7632414      18046.588    
    373000   0.96858855     0.0023323615   0.0028671205   20.199036      18.760682      1.438354      -1.7872995      18098.355    
    374000   1.0657751      0.0023323615   0.0027898341   20.203319      18.620643      1.5826761     -1.9372555      17964.389    
    375000   0.93286753     0.0023323615  -0.0015938014   20.021342      18.636034      1.3853083     -1.9184169      18176.801    
    376000   0.97546177     0.0023323615  -0.0033464169   20.338688      18.890127      1.4485607     -1.705722       18071.927    
    377000   0.99366495     0.0023323615   0.0022406897   19.960571      18.484979      1.4755925     -2.0073952      18176.321    
    378000   0.89983665     0.0023323615  -0.0012173692   20.150398      18.81414       1.3362574     -1.5987599      18175.745    
    379000   0.97563134     0.0023323615   0.0021428211   20.489012      19.040199      1.4488125     -1.580154       18363.263    
    380000   1.1403547      0.0023323615   0.00032682944  20.447792      18.754365      1.6934267     -1.6819196      18434.922    
    381000   1.165371       0.0023323615   0.0013790474   20.374834      18.644258      1.7305759     -1.86437        18351.369    
    382000   0.90975159     0.0023323615   0.0021025028   20.052066      18.701085      1.3509811     -1.6740921      18359.909    
    383000   1.0162025      0.0023323615  -0.0017427203   20.711136      19.202075      1.5090608     -1.3539572      18373.063    
    384000   0.99905019     0.0023323615  -0.00071492653  20.400112      18.916522      1.4835895     -1.4910961      18525.598    
    385000   1.0028455      0.0023323615   0.0023482359   20.404297      18.915071      1.4892256     -1.668617       18291.05     
    386000   0.93905588     0.0023323615   0.0010169389   20.210188      18.81569       1.394498      -1.6660878      18224.43     
    387000   1.046149       0.0023323615  -0.0018508524   20.486902      18.933371      1.5535312     -1.6327897      18229.136    
    388000   0.92920817     0.0023323615  -0.00058026141  20.101571      18.721697      1.3798741     -1.7302858      18158.854    
    389000   0.96178988     0.0023323615   0.0037469039   20.371732      18.943474      1.428258      -1.6664841      18134.878    
    390000   1.0551511      0.0023323615   0.0014791248   19.923488      18.356588      1.5668994     -2.0701693      18197.247    
    391000   0.91323907     0.0023323615   0.0022095349   20.143632      18.787471      1.35616       -1.8110271      17744.831    
    392000   1.0693875      0.0023323615   0.0014043618   20.25595       18.66791       1.5880405     -1.8523811      18135.587    
    393000   0.93872098     0.0023323615  -0.00056607497  20.193046      18.799045      1.3940007     -1.7341791      18137.303    
    394000   0.90822536     0.0023323615  -0.0017858277   20.303626      18.954911      1.3487147     -1.7312787      18017.344    
    395000   1.0173267      0.0023323615  -0.0027313437   20.329009      18.818278      1.5107302     -1.8196338      18188.911    
    396000   1.1067421      0.0023323615   0.0012435372   20.563247      18.919735      1.643512      -1.6599877      18115.156    
    397000   0.95951991     0.0023323615  -0.002218684    20.180742      18.755855      1.4248871     -1.6771326      18294.896    
    398000   1.0348551      0.0023323615  -0.0022331464   20.144012      18.607252      1.5367598     -1.9692421      18195.217    
    399000   1.072823       0.0023323615   0.0053946673   20.459636      18.866494      1.5931422     -1.5993261      18099.914    
    400000   1.0208008      0.0023323615   0.00072196243  20.296858      18.780969      1.5158892     -1.7437858      18307.97     
    401000   0.83261164     0.0023323615   0.00062176278  20.055996      18.819568      1.2364283     -1.7076852      18144.66     
    402000   1.0666875      0.0023323615   0.00060809118  20.376881      18.79285       1.5840309     -1.6268299      17967.48     
    403000   0.89232929     0.0023323615   0.0015568078   20.25113       18.926021      1.325109      -1.6350091      18082.518    
    404000   0.98194306     0.0023323615   0.0012145517   19.992662      18.534477      1.4581854     -1.8742946      18045.247    
    405000   0.97460163     0.0023323615  -0.0017845416   20.264636      18.817352      1.4472834     -1.7102528      18061.041    
    406000   0.93765413     0.0023323615   0.0011106015   20.277851      18.885435      1.3924164     -1.6785245      18180.9      
    407000   1.0106095      0.0023323615  -0.0019693488   20.3812        18.880445      1.500755      -1.4853483      18260.739    
    408000   0.91556769     0.0023323615   0.0033800901   20.1356        18.775982      1.359618      -1.7022407      18071.459    
    409000   0.94716655     0.0023323615   0.002929625    20.264734      18.858192      1.4065423     -1.7865799      18047.834    
    410000   1.0419285      0.0023323615  -0.0021147065   20.242361      18.695097      1.5472638     -1.7705831      18084.091    
[...]
    861000   0.88010431     0.0023323615  -0.0044315219   20.518898      19.211944      1.3069549     -1.4568381      18128.462    
    862000   0.85084602     0.0023323615  -0.0022272781   20.124248      18.860742      1.2635063     -1.7449127      18388.166    
    863000   1.0640471      0.0023323615  -7.2142749e-05  20.284642      18.704532      1.58011       -1.8159625      18268.436    
    864000   0.92868018     0.0023323615  -0.0017552547   20.164407      18.785317      1.3790901     -1.7742901      18125.443    
    865000   0.84104809     0.0023323615  -0.0019510074   19.904947      18.655991      1.2489564     -1.7714641      18072.071    
    866000   1.1253098      0.0023323615   0.00024366771  20.338852      18.667767      1.6710851     -1.8067965      18178.38     
    867000   1.0544983      0.0023323615   0.0037896379   20.621285      19.055355      1.56593       -1.4690846      18236.893    
    868000   0.96076334     0.0023323615   0.0015096069   20.453308      19.026574      1.4267336     -1.4860399      18218.851    
    869000   1.0950644      0.0023323615  -0.00068775132  20.432747      18.806576      1.6261706     -1.6852732      18074.175    
    870000   0.95304025     0.0023323615   0.0059977035   20.250192      18.834927      1.4152648     -1.6438592      18037.351    
    871000   1.0394727      0.0023323615  -0.00020087039  20.103104      18.559487      1.543617      -1.8805588      17835.166    
    872000   0.90920362     0.0023323615   0.0019673389   20.06841       18.718243      1.3501674     -1.7449686      17969.868    
    873000   0.9632055      0.0023323615  -0.0010646857   20.264127      18.833767      1.4303602     -1.603765       18004.103    
    874000   1.0587574      0.0023323615  -0.00011328501  20.357905      18.785651      1.5722547     -1.6911979      18089.558    
    875000   0.96924545     0.0023323615  -0.0023651996   20.308625      18.869295      1.4393295     -1.641269       18126.263    
    876000   0.99620021     0.0023323615   0.0008479601   20.150876      18.671519      1.4793573     -1.8056902      18134.723    
    877000   0.83043144     0.0023323615   0.0046371924   20.099204      18.866013      1.2331907     -1.5606746      18048.147    
    878000   1.0213788      0.0023323615   0.0048743232   20.044621      18.527873      1.5167475     -1.8507123      18136.766    
    879000   0.84017373     0.0023323615  -0.00014736703  20.005872      18.758214      1.247658      -1.6900793      18105.752    
    880000   1.1089627      0.0023323615  -0.0011369345   20.559568      18.912758      1.6468096     -1.5921499      18239.669    
    881000   0.92682355     0.0023323615   0.0019703049   20.218314      18.841981      1.376333      -1.6370543      18205.698    
    882000   1.0903329      0.0023323615   0.0036158763   20.214478      18.595333      1.6191443     -1.7904245      18232.439    
    883000   0.97689374     0.0023323615  -0.00063870488  20.267512      18.816825      1.4506872     -1.693997       18191.182    
    884000   1.0231804      0.0023323615   0.0050341618   20.411967      18.892544      1.5194229     -1.5388373      18289.977    
    885000   0.93326708     0.0023323615  -0.0044986785   20.277693      18.891791      1.3859016     -1.6833278      18077.35     
    886000   0.95971536     0.0023323615  -0.0019818405   20.194875      18.769698      1.4251773     -1.6949309      18172.859    
    887000   1.0109145      0.0023323615  -0.00086482771  20.241122      18.739914      1.501208      -1.7918159      18122.537    
    888000   1.0167817      0.0023323615  -0.0028034491   20.32952       18.819599      1.5099208     -1.616129       18065.663    
    889000   1.0421675      0.0023323615   0.00093111802  20.267193      18.719574      1.5476187     -1.7774752      18174.431    
    890000   1.0505657      0.0023323615  -0.0040579321   20.060484      18.500394      1.5600901     -1.8861938      18384.579    
    891000   0.92823382     0.0023323615  -0.0035334317   19.975444      18.597016      1.3784272     -2.0839848      18308.531    
    892000   0.97095396     0.0023323615   0.002062936    20.418951      18.977084      1.4418666     -1.6738913      18203.314    
    893000   0.96023615     0.0023323615  -0.00082653942  20.284368      18.858417      1.4259507     -1.7306045      18993.585    
    894000   1.1281196      0.0023323615   0.0034356909   20.628265      18.953008      1.6752576     -1.6445303      18410.405    
    895000   0.8541731      0.0023323615  -0.00035097062  20.139563      18.871116      1.268447      -1.6372424      18122.797    
    896000   1.0057901      0.0023323615   0.00026652736  20.325608      18.832009      1.4935983     -1.6413349      18072.503    
    897000   0.97971325     0.0023323615   0.0009081111   20.29151       18.836636      1.4548742     -1.6551319      18108.636    
    898000   1.0571531      0.0023323615  -0.0034941635   20.718791      19.148919      1.5698724     -1.3985123      18180.237    
    899000   0.97839902     0.0023323615  -0.0052996113   20.186671      18.733748      1.4529225     -1.8572719      18235.364    
    900000   0.98786626     0.0023323615   5.3852894e-05  20.144156      18.677175      1.4669814     -1.8404477      18176.135    
    901000   1.0387993      0.0023323615   0.00039360012  20.770302      19.227685      1.542617      -1.4088707      18245.12     
    902000   0.93460084     0.0023323615  -0.00082298738  20.25885       18.870968      1.3878823     -1.6934094      18062.4      
    903000   0.91389528     0.0023323615   0.0044102514   20.027744      18.670609      1.3571345     -1.7281531      17940.875    
    904000   0.94664933     0.0023323615  -0.0030047222   19.953456      18.547682      1.4057742     -1.9199157      17902.935    
    905000   0.98432823     0.0023323615  -0.0011134932   20.11777       18.656042      1.4617274     -2.0209772      18087.371    
    906000   0.93457816     0.0023323615  -0.00021353699  19.916248      18.528399      1.3878486     -1.9613554      18195.38     
    907000   1.063466       0.0023323615  -0.0012988982   20.379896      18.800649      1.5792471     -1.6853722      18305.358    
    908000   1.0087614      0.0023323615  -0.0019857119   20.382439      18.884429      1.4980106     -1.7208648      18003.077    
    909000   0.96169161     0.0023323615   0.0015597232   20.35515       18.927038      1.428112      -1.5790581      18010.471    
    910000   0.87996708     0.0023323615  -0.0046276077   20.293982      18.987231      1.3067511     -1.6757243      18015.532    
    911000   1.0215474      0.0023323615  -0.0013263799   20.499491      18.982493      1.516998      -1.5620353      18243.757    
    912000   1.0147988      0.0023323615  -0.0010132304   20.473846      18.96687       1.5069763     -1.5495964      18229.322    
    913000   0.94188934     0.0023323615   0.00047086949  20.030238      18.631532      1.3987057     -1.8715025      18131.854    
    914000   0.96969363     0.0023323615  -0.0012306237   20.189408      18.749413      1.439995      -1.723011       18136.697    
    915000   0.95644804     0.0023323615   0.0011753016   20.352732      18.932407      1.4203253     -1.5820082      17956.077    
    916000   0.98108711     0.0023323615   0.00059499127  20.330335      18.873421      1.4569144     -1.5632929      18125.43     
    917000   0.96180174     0.0023323615   0.00040947776  20.139189      18.710913      1.4282756     -1.7404411      17983.745    
    918000   1.0417475      0.0023323615  -0.0032334552   20.372035      18.82504       1.546995      -1.6778047      18148.167    
    919000   0.97756634     0.0023323615  -0.00092069876  20.184831      18.733145      1.451686      -1.7624628      18227.967    
    920000   0.8891661      0.0023323615  -0.00012843742  19.908947      18.588535      1.3204117     -1.8911218      18087.355    
    921000   0.98590722     0.0023323615   0.00088796782  20.282482      18.81841       1.4640722     -1.6341397      18099.681    
    922000   1.0064994      0.0023323615  -0.002011675    20.305991      18.811339      1.4946516     -1.5904298      18078.218    
    923000   1.153803       0.0023323615   0.0015224479   20.847378      19.133981      1.7133974     -1.5379628      18206.25     
    924000   1.0314338      0.0023323615   0.0024927664   20.466642      18.934962      1.5316791     -1.5773354      18265.277    
    925000   0.99704673     0.0023323615  -0.0038368193   20.559866      19.079251      1.4806144     -1.4209526      18238.09     
    926000   1.0008496      0.0023323615   0.00047793891  20.177976      18.691714      1.4862616     -1.913533       18417.053    
    927000   1.1398777      0.0023323615  -0.0024488856   20.623892      18.931174      1.6927184     -1.6225649      18310.559    
    928000   1.0278206      0.0023323615  -0.00043415676  20.464786      18.938472      1.5263135     -1.7078565      18139.278    
    929000   1.0983447      0.0023323615  -0.00052345424  20.125434      18.494392      1.6310419     -1.990592       18148.509    
    930000   1.0668389      0.0023323615   0.0017183935   20.339373      18.755118      1.5842557     -1.7082656      18196.461    
    931000   0.96175579     0.0023323615   0.0002729037   20.114872      18.686665      1.4282074     -1.7454401      18353.363    
    932000   0.96793405     0.0023323615  -0.0024319482   20.611518      19.174136      1.4373821     -1.4088683      18334.059    
    933000   0.99535555     0.0023323615  -0.001078731    20.465937      18.987834      1.478103      -1.5133138      18612.921    
    934000   1.0201323      0.0023323615  -5.8264549e-05  20.266823      18.751927      1.5148964     -1.609743       18288.091    
    935000   1.0291795      0.0023323615   0.0084069288   20.2342        18.705868      1.5283316     -1.8376193      18274.079    
    936000   0.96942084     0.0023323615   0.0026716991   20.300923      18.861333      1.4395899     -1.657765       17877.141    
    937000   0.9694234      0.0023323615  -0.0017749592   20.43856       18.998966      1.4395937     -1.6107027      18143.851    
    938000   1.0078863      0.0023323615  -0.0029711251   20.362828      18.866117      1.4967112     -1.6545044      18286.004    
    939000   1.0553092      0.0023323615  -0.00041481196  20.468015      18.900881      1.5671341     -1.6795808      18570.986    
    940000   1.1248747      0.0023323615   0.0037000268   20.716152      19.045713      1.6704389     -1.4404953      18414.104    
    941000   0.89983526     0.0023323615   0.00082677533  20.174442      18.838187      1.3362554     -1.6236175      18274.186    
    942000   0.97656066     0.0023323615  -0.0027613965   20.475467      19.025274      1.4501926     -1.5222971      18179.27     
    943000   0.92051785     0.0023323615   0.0034423071   20.102563      18.735594      1.366969      -1.8303063      18257.823    
    944000   0.98455428     0.0023323615   0.0025005178   20.334228      18.872165      1.4620631     -1.6131542      18074.777    
    945000   1.0603707      0.0023323615   0.0011309749   20.8532        19.278549      1.5746505     -1.3654395      18107.558    
    946000   1.0857184      0.0023323615   0.0044029878   20.570117      18.957825      1.6122918     -1.6451007      18242.036    
    947000   0.82278132     0.0023323615  -0.0013356123   20.053354      18.831523      1.2218303     -1.6317068      18481.084    
    948000   0.9706983      0.0023323615   0.0011220472   20.520446      19.078959      1.441487      -1.4947917      18320.955    
    949000   1.0022464      0.0023323615   0.0016579457   20.33267       18.844334      1.4883358     -1.6725242      18340.167    
    950000   1.0374564      0.0023323615  -0.0053190214   20.316656      18.776034      1.5406228     -1.7057919      18210.939    
    951000   1.0905149      0.0023323615   0.0050032109   20.296332      18.676918      1.6194146     -1.8189736      18276.468    
    952000   1.0316928      0.0023323615  -0.0020091076   20.402013      18.869949      1.5320638     -1.7225765      18315.858    
    953000   0.92367732     0.0023323615   0.0024526808   19.875469      18.503808      1.3716608     -1.9664268      18293.527    
    954000   0.89153106     0.0023323615   0.00067725737  20.301069      18.977146      1.3239236     -1.523003       18280.327    
    955000   0.99681284     0.0023323615  -0.0020294281   20.262006      18.781739      1.4802671     -1.6654331      18366.788    
    956000   0.99951833     0.0023323615  -0.0012436508   20.335071      18.850787      1.4842847     -1.6580642      18308.514    
    957000   1.09596        0.0023323615  -0.00041498673  20.596781      18.969281      1.6275005     -1.6458448      18252.194    
    958000   0.9218372      0.0023323615   0.00091205292  20.479306      19.110377      1.3689282     -1.4295047      18311.009    
    959000   0.94697273     0.0023323615   0.0039211853   20.226186      18.819931      1.4062545     -1.6831971      18594.055    
    960000   1.0161283      0.0023323615  -0.0016698437   20.627022      19.118072      1.5089505     -1.4167016      18591.423    
    961000   1.0914766      0.0023323615  -0.0010350461   20.663233      19.04239       1.6208428     -1.5547921      18144.904    
    962000   0.99933787     0.0023323615  -0.0014983784   20.597413      19.113396      1.4840167     -1.4907582      18316.096    
    963000   1.054677       0.0023323615  -0.00031380837  20.398833      18.832638      1.5661954     -1.6639838      18814.443    
    964000   1.1009678      0.0023323615  -0.0023831696   20.885056      19.250119      1.6349371     -1.3743997      19337.256    
    965000   1.0126674      0.0023323615   0.002486133    20.34132       18.837509      1.503811      -1.630543       18732.498    
    966000   1.1792727      0.0023323615  -0.0010626377   20.339281      18.588061      1.75122       -1.9077424      18284.084    
    967000   1.1283545      0.0023323615  -0.0025448827   20.551569      18.875963      1.6756065     -1.6597893      18147.711    
    968000   0.97578552     0.0023323615   0.0026461017   20.125811      18.67677       1.4490415     -1.8157916      18206.595    
    969000   0.88034033     0.0023323615  -0.0016159326   20.13214       18.824834      1.3073054     -1.7554818      18149.044    
    970000   0.92572418     0.0023323615  -0.0013775222   20.309967      18.935267      1.3747004     -1.5527749      18419.891    
    971000   0.928335       0.0023323615   0.0043774525   20.518285      19.139707      1.3785775     -1.3893274      18262.272    
    972000   0.87082341     0.0023323615  -0.0033300775   20.306299      19.013126      1.2931728     -1.5785813      18316.006    
    973000   0.94114561     0.0023323615   0.0023233948   20.208129      18.810528      1.3976012     -1.6061495      18262.386    
    974000   0.94829974     0.0023323615  -0.00023214191  20.209044      18.800818      1.4082251     -1.6796905      18423.356    
    975000   0.95530424     0.0023323615  -0.0010592303   20.300605      18.881978      1.4186268     -1.60111        18456.943    
    976000   0.96929506     0.0023323615   0.00088637063  20.231405      18.792002      1.4394032     -1.7572183      18337.677    
    977000   0.90337148     0.0023323615   0.0010101084   19.889583      18.548077      1.3415066     -1.9641535      18128.719    
    978000   0.84193313     0.0023323615  -0.0035948302   20.148396      18.898125      1.2502707     -1.6311647      17961.767    
    979000   0.86223128     0.0023323615  -0.0001111868   20.459832      19.179419      1.2804134     -1.4537092      18197.842    
    980000   1.0200133      0.0023323615   0.0052727588   20.17029       18.655571      1.5147197     -1.8189194      18223.664    
    981000   1.1638755      0.0023323615   0.0035215363   20.424739      18.696384      1.7283552     -1.8080134      18075.583    
    982000   0.92577734     0.0023323615  -0.00083538221  20.058903      18.684123      1.3747794     -1.8425755      17993.188    
    983000   0.87473494     0.0023323615  -0.0019533537   20.037522      18.738541      1.2989814     -1.7323321      17952.93     
    984000   0.99003066     0.0023323615   0.0015431505   20.269161      18.798965      1.4701955     -1.5714105      18069.964    
    985000   0.9929477      0.0023323615  -0.0011218443   20.302217      18.827689      1.4745273     -1.6340994      18009.869    
    986000   0.90171059     0.0023323615  -0.0015637269   20.164652      18.825612      1.3390402     -1.6798176      18001.268    
    987000   0.94312472     0.0023323615  -0.0012805886   20.310239      18.909698      1.4005402     -1.6299519      18002.155    
    988000   0.93734434     0.0023323615   0.0013502114   20.247069      18.855113      1.3919563     -1.7417656      18027.073    
    989000   0.90126598     0.0023323615   0.0040766567   20.164745      18.826365      1.33838       -1.7168187      18018.888    
    990000   0.87080375     0.0023323615  -0.0067627762   20.079718      18.786574      1.2931436     -1.7975279      17961.87     
    991000   0.94649574     0.0023323615   0.0015443693   20.232615      18.827069      1.4055462     -1.7865696      18051.33     
    992000   0.93704487     0.0023323615  -0.0041115746   20.080156      18.688645      1.3915116     -1.8094112      18195.984    
    993000   1.0048732      0.0023323615  -0.0016478958   20.262357      18.770121      1.4922367     -1.8404272      18147.065    
    994000   0.93146127     0.0023323615   0.0026861887   20.538239      19.155019      1.38322       -1.4742181      18136.684    
    995000   0.87899566     0.0023323615  -0.00072777719  20.206873      18.901564      1.3053086     -1.7099859      18205.781    
    996000   1.0141395      0.0023323615   0.00049320137  20.598047      19.09205       1.5059972     -1.4047029      18350.151    
    997000   0.9668897      0.0023323615  -0.00056113389  20.332844      18.897013      1.4358312     -1.5838593      18174.064    
    998000   0.85017662     0.0023323615  -0.0043623545   20.00148       18.738968      1.2625123     -1.7730482      18143.432    
    999000   0.99954036     0.0023323615   0.0032181295   20.40862       18.924303      1.4843174     -1.6278415      18171.642    
   1000000   0.93779891     0.0023323615   0.0025423996   20.573565      19.180933      1.3926314     -1.4476478      18213.847    
Loop time of 54.9335 on 1 procs for 1000000 steps with 100 atoms

Performance: 7864050.597 tau/day, 18203.821 timesteps/s
99.4% CPU use with 1 MPI tasks x 1 OpenMP threads

MPI task timing breakdown:
Section |  min time  |  avg time  |  max time  |%varavg| %total
---------------------------------------------------------------
Pair    | 45.796     | 45.796     | 45.796     |   0.0 | 83.37
Bond    | 1.296      | 1.296      | 1.296      |   0.0 |  2.36
Neigh   | 3.8278     | 3.8278     | 3.8278     |   0.0 |  6.97
Comm    | 1.4699     | 1.4699     | 1.4699     |   0.0 |  2.68
Output  | 0.25535    | 0.25535    | 0.25535    |   0.0 |  0.46
Modify  | 1.9348     | 1.9348     | 1.9348     |   0.0 |  3.52
Other   |            | 0.3535     |            |       |  0.64

Nlocal:            100 ave         100 max         100 min
Histogram: 1 0 0 0 0 0 0 0 0 0
Nghost:            330 ave         330 max         330 min
Histogram: 1 0 0 0 0 0 0 0 0 0
Neighs:           4851 ave        4851 max        4851 min
Histogram: 1 0 0 0 0 0 0 0 0 0

Total # of neighbors = 4851
Ave neighs/atom = 48.51
Ave special neighs/atom = 1.98
Neighbor list builds = 97827
Dangerous builds = 79462

write_data      ${outputfile_assembled} nofix nocoeff
write_data      7_assembled.data nofix nocoeff
System init for write_data ...
Generated 0 of 6 mixed pair_coeff terms from geometric mixing rule

Total wall time: 0:00:56
