ITEM: TIMESTEP
0
ITEM: NUMBER OF ATOMS
100
ITEM: BOX BOUNDS pp pp pp
-4.8359586999999998e+01 5.1640413000000002e+01
-4.8810423999999998e+01 5.1189576000000002e+01
-4.6257793999999997e+01 5.3742206000000003e+01
ITEM: ATOMS id type xu yu zu vx vy vz
1 1 -0.576225 2.37306 1.56419 0.926204 1.29963 1.93535
2 1 -0.566107 3.06567 2.2147 -0.565169 0.520796 -0.754688
3 1 -0.520087 3.97802 2.65296 0.34634 -0.941959 -0.292944
4 1 -1.46645 3.92313 2.92805 -0.316548 0.382166 1.25164
5 1 -1.21858 3.31455 3.56155 -0.583982 -0.372348 0.256482
6 1 -0.349956 3.14659 3.26501 0.0715776 0.151876 -0.585134
7 1 0.351478 2.55883 3.57306 0.386225 0.683565 -1.96722
8 1 0.098328 2.10893 2.66662 0.629434 -1.19094 0.387259
9 1 -0.397365 1.38495 3.11734 0.967004 -0.813245 0.485333
10 1 -0.980973 1.60523 3.80498 1.74384 0.0275832 -0.358686
11 1 -1.79834 2.00636 3.51412 0.406219 0.556842 1.12132
12 1 -2.09929 1.54946 4.35359 1.07823 -0.739531 -0.551924
13 1 -2.49844 2.41415 4.65622 0.57671 -0.945388 -1.57666
14 1 -2.39385 3.34857 4.76343 -2.81553 -0.0947009 -0.257532
15 1 -1.98597 3.98025 5.36313 -0.390288 -0.263298 -0.199064
16 1 -1.45872 4.80529 5.11213 0.824884 -0.971224 0.623469
17 1 -1.76008 5.01563 4.17714 -1.12351 -0.103146 -1.15355
18 1 -2.25329 5.7233 4.65806 1.65375 0.878967 2.83549
19 1 -1.85436 6.06761 5.4725 -0.685663 1.62792 -0.700017
20 1 -1.40709 6.06403 6.26124 -0.164406 0.0723394 0.540464
21 1 -1.28288 5.37712 6.88769 0.62091 -0.269143 -0.3413
22 1 -1.59161 5.58529 7.81698 -0.111378 1.78446 1.70176
23 1 -0.955884 6.37642 7.8935 0.503645 0.299836 -0.0790671
24 1 -0.530607 5.99489 8.71394 0.458824 -0.0818626 1.20547
25 1 -0.185088 6.73115 9.16849 0.105067 -0.61598 1.29417
26 1 -0.779091 7.27243 9.69938 0.849027 -1.84862 1.26424
27 1 -1.40624 7.19326 10.4176 -1.54649 -0.200756 -0.27125
28 1 -2.19849 7.367 10.8748 -0.77732 1.07471 -0.603712
29 1 -3.0228 7.89108 10.7099 -0.130734 -0.296818 0.574174
30 1 -2.60941 8.60466 11.2024 0.052297 -0.898645 0.233435
31 1 -1.62087 8.61139 11.5088 0.724922 0.216583 -0.375996
32 1 -1.31583 9.29446 12.1586 0.242282 0.408338 0.0340443
33 1 -0.50522 9.76899 12.5479 -0.189711 -1.4354 0.813185
34 1 -0.00407059 10.6235 12.4777 -1.09163 1.34838 0.842083
35 1 0.576107 11.124 11.9453 0.742206 0.454268 0.359698
36 1 0.965845 11.8962 12.3917 -0.824751 0.617663 -1.32415
37 1 1.29851 12.5523 11.783 -2.88654 -0.932257 0.187763
38 1 1.47379 13.4705 11.4001 -0.696128 0.125459 -2.01694
39 1 2.28649 12.8325 11.4128 0.636357 0.659392 -0.495918
40 1 3.17412 12.4819 11.2798 1.60534 0.201722 -1.11407
41 1 3.6802 13.2429 11.4346 0.421592 0.879484 -0.219036
42 1 3.82383 13.6091 12.2888 -0.0699501 -0.24672 0.814582
43 1 3.81564 13.4377 13.2487 -0.300385 2.34517 0.507054
44 1 4.65083 13.9104 13.3131 0.962984 0.819998 -0.0863124
45 1 4.9897 14.4247 14.1056 -0.967787 0.822577 1.11341
46 1 4.59504 14.9366 14.8855 -0.00942148 0.893336 -0.0697209
47 1 4.31408 15.6249 15.4657 0.664488 1.17187 0.843213
48 1 5.08534 15.046 15.7214 1.15381 -0.905911 0.103892
49 1 5.38009 15.1997 16.6711 -0.822309 -0.585547 0.112431
50 1 4.91658 14.4881 17.129 -0.794531 0.895631 -0.151521
51 1 0.250451 1.90603 1.65235 -0.268214 -1.27488 0.180296
52 1 1.01281 1.92694 2.29518 -1.17869 -1.64123 -2.75824
53 1 1.80356 2.46498 2.02603 -0.428533 -1.22822 -0.356822
54 1 2.58859 2.00209 1.66451 0.946775 -0.847348 0.633648
55 1 2.89731 2.02939 2.64842 -1.1075 0.0536856 0.353825
56 1 2.45728 1.51984 3.36921 -0.0336171 -0.324034 -0.645902
57 1 2.46547 0.586736 3.41325 0.693557 -1.13644 -0.0196066
58 1 2.07517 0.063335 4.12038 -0.253036 0.261896 1.43431
59 1 1.23504 -0.124552 3.6448 -0.464581 0.84323 -0.833926
60 1 1.68375 -0.530417 2.89254 1.34864 0.763282 1.04147
61 1 1.89722 -1.39235 3.22876 0.540233 -0.442416 1.79004
62 1 1.67573 -1.33584 4.16637 2.1574 0.80341 -0.117626
63 1 1.82008 -2.28129 4.42395 -0.247684 0.20228 -0.214865
64 1 0.961382 -2.34721 4.03871 0.805281 -1.20753 1.1558
65 1 -0.0190941 -2.43712 4.30053 -0.154558 0.7917 0.592774
66 1 0.0805594 -1.52369 4.55508 -0.709545 0.718323 1.63889
67 1 0.290276 -1.45237 3.57747 -0.908041 -1.87494 0.587777
68 1 0.00542794 -2.00078 2.76931 -0.678031 2.01118 0.439946
69 1 -0.472109 -2.32527 2.08349 -0.433693 -0.0745126 0.806053
70 1 -1.11367 -2.69244 1.50146 -1.27703 -0.838498 -0.727951
71 1 -1.05168 -3.60886 1.53803 1.15229 0.848605 0.599348
72 1 -1.74507 -4.16521 1.36873 0.810953 0.632854 0.598513
73 1 -1.53659 -4.65457 2.16905 -0.632853 0.519655 -1.51287
74 1 -0.7493 -5.07925 2.51256 -2.37771 -1.93062 0.0902317
75 1 0.111443 -4.94009 1.98742 1.08641 -0.939565 -0.907623
76 1 1.00697 -4.59864 1.77295 -2.05844 -0.99549 -1.37176
77 1 1.55719 -5.15486 1.15204 -0.428985 0.788014 0.138884
78 1 0.859998 -5.83604 0.815377 1.67773 -0.966547 -1.7478
79 1 0.773886 -6.79253 0.979235 1.20981 -1.11324 -1.77038
80 1 1.49728 -7.03282 1.6108 0.463983 0.779567 -0.379303
81 1 1.81763 -8.0265 1.45275 -1.07315 -0.621451 -0.485474
82 1 2.5913 -7.48993 1.71688 -0.847273 -0.594206 1.19356
83 1 3.48419 -7.50593 1.30193 0.77632 -1.44943 -1.02056
84 1 3.36264 -7.18539 0.427198 1.1859 -1.59119 1.19078
85 1 4.04608 -7.80245 0.248694 -0.654128 0.0684484 -0.756735
86 1 3.37241 -8.44277 0.471211 -1.01306 -1.34186 -0.421789
87 1 3.276 -9.46097 0.267694 -0.66287 0.714373 -0.307947
88 1 2.92148 -9.87341 -0.56814 -0.774526 0.824923 -0.279273
89 1 2.443 -10.2662 -1.39382 1.8293 0.498045 0.656966
90 1 1.79733 -10.933 -1.62447 -1.2671 1.53574 -0.453383
91 1 1.07197 -11.2623 -2.18769 1.76306 1.0595 0.721857
92 1 0.78043 -12.1253 -1.82326 -0.130211 0.722806 -1.69117
93 1 0.37494 -12.0812 -0.877511 -0.130214 0.0497345 -0.368509
94 1 -0.0744261 -12.8129 -0.381448 -0.670718 0.400633 -0.0589134
95 1 -0.767934 -12.609 -1.03245 -0.426005 -0.88095 0.765144
96 1 -0.641685 -13.2796 -1.70356 -0.501945 -0.127284 -0.567483
97 1 -0.154911 -13.9352 -1.13332 1.74425 0.330651 0.0663889
98 1 0.483909 -14.6645 -0.993871 -1.85122 2.19494 -0.437939
99 1 1.06725 -15.3606 -0.557355 -0.526543 -0.43617 -0.191557
100 1 0.915337 -15.404 0.383395 0.566119 -1.12473 0.450822
ITEM: TIMESTEP
1
ITEM: NUMBER OF ATOMS
100
ITEM: BOX BOUNDS pp pp pp
-4.8359586999999998e+01 5.1640413000000002e+01
-4.8810423999999998e+01 5.1189576000000002e+01
-4.6257793999999997e+01 5.3742206000000003e+01
ITEM: ATOMS id type xu yu zu vx vy vz
1 1 -0.571678 2.3795 1.57376 0.895017 1.25014 1.86986
2 1 -0.56892 3.0688 2.21117 -0.560422 0.746567 -0.635187
3 1 -0.518655 3.97296 2.6513 0.218832 -1.0694 -0.366266
4 1 -1.46801 3.92562 2.93364 -0.297415 0.615518 0.983849
5 1 -1.22166 3.31219 3.56356 -0.63232 -0.572872 0.53974
6 1 -0.349139 3.14715 3.26209 0.234635 0.0789556 -0.579788
7 1 0.353215 2.56201 3.56266 0.315886 0.585016 -2.18469
8 1 0.101224 2.10313 2.66945 0.529612 -1.12796 0.733545
9 1 -0.392078 1.38096 3.11927 1.15359 -0.791274 0.278986
10 1 -0.972517 1.60547 3.80358 1.62021 0.0735256 -0.194023
11 1 -1.79648 2.00899 3.52004 0.349771 0.495189 1.23999
12 1 -2.09392 1.54626 4.35062 1.06445 -0.546928 -0.631577
13 1 -2.49543 2.40891 4.6482 0.627641 -1.13703 -1.6279
14 1 -2.4079 3.3483 4.76217 -2.8017 -0.0175762 -0.239832
15 1 -1.98769 3.97929 5.36201 -0.303622 -0.128404 -0.252884
16 1 -1.45495 4.80015 5.11497 0.677203 -1.07888 0.501476
17 1 -1.76571 5.01523 4.17188 -1.12827 -0.0546255 -0.928001
18 1 -2.24484 5.72753 4.6722 1.7105 0.790568 2.77131
19 1 -1.85833 6.07572 5.46803 -0.861058 1.6329 -1.00878
20 1 -1.40746 6.06463 6.2646 -0.0052085 0.169851 0.762888
21 1 -1.27985 5.37561 6.88656 0.586975 -0.333325 -0.0930125
22 1 -1.59174 5.59451 7.82517 0.0609372 1.89676 1.55807
23 1 -0.953516 6.3774 7.89337 0.450064 0.0917269 0.0359845
24 1 -0.528636 5.99427 8.71945 0.324433 -0.166939 0.987075
25 1 -0.184415 6.72843 9.17519 0.175676 -0.473528 1.38145
26 1 -0.774795 7.26318 9.70565 0.857939 -1.84484 1.25356
27 1 -1.41362 7.19217 10.4161 -1.39726 -0.238183 -0.35099
28 1 -2.20302 7.37262 10.872 -1.02652 1.16673 -0.528336
29 1 -3.02321 7.88943 10.7128 -0.0456685 -0.358517 0.587688
30 1 -2.60859 8.60017 11.2037 0.283601 -0.890712 0.307605
31 1 -1.61772 8.61268 11.507 0.534854 0.299521 -0.365127
32 1 -1.31432 9.29652 12.1588 0.35538 0.410889 0.0259142
33 1 -0.506396 9.76186 12.5517 -0.2695 -1.40002 0.730256
34 1 -0.00995133 10.6297 12.4822 -1.25461 1.14695 0.935851
35 1 0.580135 11.1266 11.9469 0.850563 0.565715 0.294917
36 1 0.961638 11.8991 12.385 -0.865274 0.536623 -1.29873
37 1 1.28416 12.5481 11.7837 -2.83566 -0.713279 0.0729301
38 1 1.47069 13.4704 11.3902 -0.544021 -0.192808 -1.94012
39 1 2.28927 12.8361 11.4103 0.481949 0.796862 -0.506093
40 1 3.18182 12.4825 11.2742 1.46704 0.0392289 -1.14575
41 1 3.68256 13.2476 11.4333 0.518875 1.00995 -0.282149
42 1 3.82352 13.6079 12.2933 -0.0540619 -0.214207 0.966731
43 1 3.81415 13.4495 13.251 -0.292023 2.35884 0.454025
44 1 4.65577 13.9147 13.313 1.00902 0.898671 0.0415658
45 1 4.98455 14.4289 14.1112 -1.09008 0.82876 1.12033
46 1 4.59501 14.9406 14.8842 -0.0070203 0.72021 -0.41566
47 1 4.31761 15.6307 15.4702 0.756517 1.1468 0.936359
48 1 5.0912 15.0417 15.7226 1.17469 -0.771972 0.374985
49 1 5.37583 15.1966 16.6713 -0.871041 -0.613333 -0.0394716
50 1 4.91263 14.4926 17.1282 -0.792732 0.89844 -0.153305
51 1 0.24948 1.8996 1.65338 -0.139004 -1.299 0.215722
52 1 1.00716 1.91885 2.28097 -1.06403 -1.59341 -2.91249
53 1 1.80133 2.45856 2.02426 -0.461356 -1.34088 -0.35471
54 1 2.59332 1.99797 1.6683 0.94149 -0.799161 0.880123
55 1 2.89148 2.02951 2.64984 -1.21616 -0.00232832 0.209717
56 1 2.45723 1.51876 3.36577 0.00746713 -0.133223 -0.722676
57 1 2.46893 0.580646 3.41319 0.688813 -1.2858 -0.00150236
58 1 2.07371 0.064609 4.12742 -0.336453 0.250198 1.37172
59 1 1.23295 -0.120313 3.64071 -0.368232 0.857046 -0.793743
60 1 1.69043 -0.52644 2.89773 1.33222 0.80879 1.03723
61 1 1.89994 -1.3947 3.23781 0.551451 -0.482406 1.79857
62 1 1.68657 -1.33211 4.16581 2.17276 0.688484 -0.0793585
63 1 1.81901 -2.27998 4.4229 -0.157557 0.326527 -0.198606
64 1 0.964705 -2.35331 4.04452 0.502801 -1.23321 1.15996
65 1 -0.0193942 -2.43321 4.30334 0.037197 0.773938 0.531227
66 1 0.0771039 -1.51997 4.56292 -0.672055 0.763382 1.49032
67 1 0.285516 -1.46204 3.5804 -0.992652 -1.9819 0.601395
68 1 0.00287676 -1.98999 2.77291 -0.362645 2.29047 0.964643
69 1 -0.474785 -2.32601 2.08669 -0.637877 -0.222686 0.480942
70 1 -1.1203 -2.69604 1.49762 -1.36091 -0.563569 -0.796559
71 1 -1.04506 -3.60466 1.54125 1.48533 0.787242 0.688567
72 1 -1.74182 -4.16269 1.37153 0.495874 0.39819 0.501287
73 1 -1.53979 -4.65196 2.16147 -0.635014 0.510402 -1.49453
74 1 -0.760742 -5.08885 2.51277 -2.18563 -1.90477 -0.018205
75 1 0.116662 -4.94477 1.98309 0.959196 -0.947743 -0.80959
76 1 0.996671 -4.6039 1.76592 -2.03903 -1.09369 -1.44329
77 1 1.55445 -5.1511 1.15277 -0.65978 0.711436 0.148083
78 1 0.868761 -5.84064 0.806851 1.82641 -0.874543 -1.66124
79 1 0.780164 -6.79802 0.970547 1.30043 -1.08018 -1.70596
80 1 1.4996 -7.02951 1.60861 0.46283 0.543165 -0.496062
81 1 1.8122 -8.02885 1.45047 -1.09394 -0.313528 -0.421677
82 1 2.58714 -7.493 1.72269 -0.802196 -0.640138 1.12092
83 1 3.48788 -7.51328 1.29722 0.688581 -1.50165 -0.822241
84 1 3.36829 -7.19302 0.43293 1.04326 -1.42642 1.07643
85 1 4.0431 -7.80229 0.244832 -0.525635 -0.0359054 -0.792023
86 1 3.36724 -8.45014 0.468994 -1.04159 -1.5834 -0.466996
87 1 3.27262 -9.45693 0.265981 -0.691054 0.891358 -0.379389
88 1 2.91746 -9.86936 -0.569701 -0.825011 0.799435 -0.336476
89 1 2.45245 -10.2634 -1.39006 1.93055 0.582731 0.833017
90 1 1.79083 -10.9254 -1.62684 -1.29294 1.52355 -0.473298
91 1 1.08084 -11.2572 -2.18391 1.76245 0.995024 0.773227
92 1 0.77962 -12.1215 -1.83127 -0.195127 0.808337 -1.50975
93 1 0.374371 -12.0812 -0.879719 -0.0958221 -0.05151 -0.519098
94 1 -0.0777354 -12.8107 -0.381987 -0.644433 0.50123 -0.149758
95 1 -0.769974 -12.6134 -1.0285 -0.397444 -0.880356 0.803034
96 1 -0.64402 -13.2805 -1.70623 -0.428305 -0.23215 -0.493532
97 1 -0.146227 -13.9335 -1.13315 1.69851 0.396277 -0.0113246
98 1 0.47477 -14.6537 -0.995903 -1.76843 2.09427 -0.362531
99 1 1.06439 -15.3625 -0.558588 -0.630994 -0.304335 -0.300756
100 1 0.918153 -15.4096 0.385737 0.561653 -1.12606 0.47891
ITEM: TIMESTEP
2
ITEM: NUMBER OF ATOMS
100
ITEM: BOX BOUNDS pp pp pp
-4.8359586999999998e+01 5.1640413000000002e+01
-4.8810423999999998e+01 5.1189576000000002e+01
-4.6257793999999997e+01 5.3742206000000003e+01
ITEM: ATOMS id type xu yu zu vx vy vz
1 1 -0.567275 2.38556 1.58289 0.870609 1.14634 1.75913
2 1 -0.571711 3.07314 2.20834 -0.556723 1.00484 -0.477325
3 1 -0.517899 3.96732 2.6493 0.0780774 -1.17278 -0.430506
4 1 -1.46943 3.92928 2.93789 -0.259739 0.837009 0.726278
5 1 -1.22491 3.30882 3.56695 -0.653406 -0.768818 0.797391
6 1 -0.347609 3.14738 3.25921 0.352193 0.0191245 -0.566108
7 1 0.354637 2.56468 3.55122 0.263191 0.481069 -2.37842
8 1 0.103624 2.09765 2.67396 0.434571 -1.06065 1.0548
9 1 -0.385829 1.37704 3.12013 1.34377 -0.785008 0.0663309
10 1 -0.96477 1.60597 3.80304 1.46783 0.13368 -0.0227843
11 1 -1.79484 2.01131 3.52652 0.317573 0.433038 1.34745
12 1 -2.08864 1.54399 4.34728 1.04788 -0.371189 -0.697281
13 1 -2.49217 2.40278 4.63994 0.678529 -1.29351 -1.67277
14 1 -2.42186 3.34839 4.76103 -2.78114 0.0477115 -0.210979
15 1 -1.98901 3.97896 5.3606 -0.229248 -0.013639 -0.318723
16 1 -1.45195 4.7945 5.11714 0.522402 -1.17499 0.353262
17 1 -1.77136 5.01509 4.16786 -1.13022 0.000477634 -0.667295
18 1 -2.23619 5.7312 4.68578 1.72841 0.647361 2.60239
19 1 -1.86297 6.08394 5.46241 -0.944998 1.68128 -1.14255
20 1 -1.40714 6.06572 6.26887 0.106773 0.269429 0.901999
21 1 -1.27701 5.37379 6.88676 0.545391 -0.393158 0.183481
22 1 -1.591 5.60425 7.83256 0.232568 1.98781 1.38588
23 1 -0.951383 6.37734 7.89386 0.410428 -0.107346 0.16337
24 1 -0.527363 5.99322 8.72381 0.184094 -0.25042 0.75642
25 1 -0.183331 6.72641 9.18231 0.267807 -0.346397 1.45289
26 1 -0.770512 7.25399 9.71192 0.843529 -1.82339 1.26489
27 1 -1.42021 7.19088 10.4141 -1.24099 -0.277502 -0.436859
28 1 -2.20876 7.37867 10.8695 -1.25176 1.24318 -0.444837
29 1 -3.02326 7.88749 10.7157 0.00714016 -0.409663 0.590242
30 1 -2.60658 8.59575 11.2054 0.520081 -0.87399 0.386292
31 1 -1.61552 8.61439 11.5052 0.345211 0.38417 -0.350526
32 1 -1.31228 9.29857 12.1589 0.45634 0.402766 0.0102611
33 1 -0.507915 9.75499 12.5552 -0.327395 -1.33459 0.650257
34 1 -0.0166167 10.635 12.4871 -1.40065 0.948116 1.00495
35 1 0.584613 11.1296 11.9483 0.918031 0.626269 0.241426
36 1 0.957193 11.9016 12.3787 -0.918543 0.428104 -1.2092
37 1 1.27015 12.5452 11.7837 -2.74806 -0.421974 -0.102379
38 1 1.46835 13.4686 11.3807 -0.394697 -0.528783 -1.85241
39 1 2.29131 12.8404 11.4078 0.344703 0.922861 -0.519924
40 1 3.18879 12.4823 11.2684 1.31372 -0.0997772 -1.17139
41 1 3.68539 13.253 11.4318 0.608857 1.1349 -0.330857
42 1 3.82329 13.6069 12.2985 -0.0411349 -0.185702 1.08286
43 1 3.81272 13.4613 13.2532 -0.275415 2.3732 0.421141
44 1 4.66092 13.9194 13.3136 1.04557 0.973741 0.171168
45 1 4.9788 14.433 14.1168 -1.20182 0.822724 1.1067
46 1 4.59497 14.9439 14.8813 -0.0141966 0.581704 -0.711615
47 1 4.32165 15.6363 15.4751 0.870791 1.08988 1.01681
48 1 5.09709 15.0382 15.7252 1.16814 -0.631352 0.614244
49 1 5.37138 15.1935 16.6707 -0.899741 -0.616924 -0.193102
50 1 4.90865 14.497 17.1275 -0.805652 0.878967 -0.14056
51 1 0.24906 1.89304 1.65451 -0.0538327 -1.32078 0.220349
52 1 1.00217 1.91101 2.26605 -0.913452 -1.54482 -3.03449
53 1 1.79895 2.45157 2.02248 -0.487177 -1.45673 -0.356646
54 1 2.598 1.9941 1.67331 0.923303 -0.747172 1.11575
55 1 2.88515 2.02937 2.65052 -1.30884 -0.0477382 0.0626863
56 1 2.45735 1.51851 3.36199 0.0386466 0.00708892 -0.781891
57 1 2.47235 0.573878 3.41324 0.678123 -1.40307 0.0256013
58 1 2.07181 0.065837 4.1341 -0.42779 0.24317 1.28934
59 1 1.23136 -0.115982 3.63687 -0.264684 0.879478 -0.733441
60 1 1.69707 -0.522329 2.90291 1.32993 0.817926 1.03398
61 1 1.90273 -1.39718 3.24674 0.567659 -0.495922 1.73986
62 1 1.69746 -1.32895 4.16558 2.17423 0.577269 0.0142088
63 1 1.8185 -2.27803 4.42196 -0.0340775 0.454931 -0.168904
64 1 0.96641 -2.35954 4.05031 0.166498 -1.2609 1.15049
65 1 -0.0187221 -2.42938 4.30585 0.231442 0.758943 0.471081
66 1 0.0738389 -1.51605 4.56998 -0.633688 0.802025 1.33158
67 1 0.280349 -1.47219 3.58349 -1.06793 -2.0644 0.653917
68 1 0.00180149 -1.97788 2.77896 -0.103579 2.52076 1.39432
69 1 -0.478488 -2.3275 2.0883 -0.825146 -0.360901 0.195166
70 1 -1.12728 -2.69807 1.49349 -1.42576 -0.222442 -0.84457
71 1 -1.03682 -3.60098 1.54491 1.7871 0.642594 0.772948
72 1 -1.74011 -4.16122 1.37375 0.21004 0.225622 0.368334
73 1 -1.54294 -4.64947 2.1541 -0.617932 0.468272 -1.427
74 1 -0.771156 -5.0983 2.51238 -1.9718 -1.86937 -0.146582
75 1 0.121035 -4.94956 1.97932 0.749473 -0.981626 -0.682136
76 1 0.986578 -4.60958 1.75852 -1.97622 -1.16002 -1.51512
77 1 1.55059 -5.14775 1.15352 -0.878256 0.621492 0.142608
78 1 0.878262 -5.84479 0.798765 1.97182 -0.785466 -1.57185
79 1 0.78689 -6.80333 0.962176 1.38867 -1.04058 -1.64387
80 1 1.50191 -7.02739 1.60584 0.463366 0.301473 -0.611576
81 1 1.80669 -8.02963 1.44853 -1.10626 0.00265232 -0.354476
82 1 2.58327 -7.49633 1.72809 -0.733383 -0.692046 1.02975
83 1 3.49107 -7.52095 1.29371 0.578571 -1.5768 -0.545496
84 1 3.37307 -7.19965 0.437962 0.845253 -1.19525 0.914522
85 1 4.04082 -7.80281 0.240774 -0.375156 -0.206267 -0.834561
86 1 3.36199 -8.4586 0.466541 -1.04276 -1.77476 -0.515532
87 1 3.26909 -9.45206 0.2639 -0.722212 1.04156 -0.456296
88 1 2.91323 -9.86541 -0.571505 -0.861916 0.782964 -0.373473
89 1 2.4623 -10.2604 -1.38549 1.98867 0.629275 0.978707
90 1 1.7844 -10.9177 -1.6292 -1.23838 1.56451 -0.442858
91 1 1.08959 -11.2524 -2.17996 1.71082 0.907735 0.783615
92 1 0.778479 -12.1173 -1.83835 -0.262487 0.892375 -1.31856
93 1 0.373982 -12.0817 -0.882702 -0.0590023 -0.152075 -0.67762
94 1 -0.0808704 -12.8079 -0.382945 -0.600053 0.596632 -0.224583
95 1 -0.771908 -12.6178 -1.02442 -0.384908 -0.882639 0.816332
96 1 -0.645968 -13.282 -1.70849 -0.34812 -0.33695 -0.403672
97 1 -0.137926 -13.9313 -1.13343 1.58816 0.535598 -0.109387
98 1 0.466225 -14.6435 -0.997496 -1.61282 1.90732 -0.26327
99 1 1.06094 -15.3637 -0.560362 -0.754342 -0.152639 -0.405225
100 1 0.920953 -15.4152 0.388184 0.559804 -1.12668 0.490962
ITEM: TIMESTEP
3
ITEM: NUMBER OF ATOMS
100
ITEM: BOX BOUNDS pp pp pp
-4.8359586999999998e+01 5.1640413000000002e+01
-4.8810423999999998e+01 5.1189576000000002e+01
-4.6257793999999997e+01 5.3742206000000003e+01
ITEM: ATOMS id type xu yu zu vx vy vz
1 1 -0.562972 2.39096 1.59135 0.856247 0.991852 1.60957
2 1 -0.574488 3.07884 2.2064 -0.555873 1.28276 -0.291877
3 1 -0.517874 3.96123 2.647 -0.0714921 -1.24386 -0.482889
4 1 -1.4706 3.93399 2.94091 -0.199707 1.02695 0.498813
5 1 -1.22819 3.3045 3.57153 -0.651909 -0.94136 1.00938
6 1 -0.345617 3.14735 3.25642 0.417827 -0.0244434 -0.54344
7 1 0.355847 2.56682 3.53888 0.233498 0.37252 -2.54111
8 1 0.10557 2.09252 2.68 0.351151 -0.988581 1.33779
9 1 -0.378641 1.37311 3.11993 1.52063 -0.794749 -0.133563
10 1 -0.957838 1.6068 3.80335 1.30315 0.201236 0.140954
11 1 -1.7933 2.01332 3.53351 0.308028 0.375274 1.43746
12 1 -2.08345 1.54255 4.34365 1.02908 -0.220272 -0.745704
13 1 -2.48865 2.39597 4.63147 0.726523 -1.40429 -1.70869
14 1 -2.43571 3.34877 4.76006 -2.75319 0.0945409 -0.172862
15 1 -1.98998 3.97915 5.35883 -0.169432 0.0787026 -0.395033
16 1 -1.44973 4.7884 5.11851 0.364594 -1.25756 0.184551
17 1 -1.77701 5.01523 4.16521 -1.12842 0.0595845 -0.380308
18 1 -2.22756 5.734 4.69822 1.69344 0.437741 2.30534
19 1 -1.86778 6.09253 5.45661 -0.926243 1.78678 -1.07522
20 1 -1.40639 6.06732 6.27362 0.172572 0.367712 0.961851
21 1 -1.27439 5.37168 6.88839 0.497635 -0.44482 0.476408
22 1 -1.58942 5.61439 7.83902 0.397062 2.0543 1.19268
23 1 -0.949412 6.37632 7.895 0.386299 -0.290854 0.298309
24 1 -0.526795 5.99177 8.72701 0.0456688 -0.322464 0.525483
25 1 -0.181737 6.72497 9.18972 0.378299 -0.248305 1.49898
26 1 -0.76636 7.24495 9.7183 0.805646 -1.78223 1.29792
27 1 -1.42603 7.18939 10.4117 -1.09404 -0.315666 -0.518082
28 1 -2.21554 7.38505 10.8675 -1.42987 1.29545 -0.360122
29 1 -3.02313 7.88533 10.7187 0.0205043 -0.441848 0.582666
30 1 -2.60338 8.59143 11.2076 0.755749 -0.851625 0.466134
31 1 -1.61426 8.61652 11.5035 0.160392 0.470471 -0.330997
32 1 -1.30976 9.30055 12.1589 0.543039 0.38325 -0.0139906
33 1 -0.50967 9.74852 12.5582 -0.364553 -1.24301 0.574834
34 1 -0.0239578 10.6392 12.4923 -1.52232 0.758941 1.04553
35 1 0.589316 11.1329 11.9494 0.938377 0.628358 0.200117
36 1 0.952453 11.9034 12.373 -0.979729 0.300938 -1.05682
37 1 1.25668 12.5439 11.7827 -2.63133 -0.0708002 -0.33006
38 1 1.46675 13.4651 11.3716 -0.251029 -0.87132 -1.75715
39 1 2.29272 12.8454 11.4051 0.231574 1.03509 -0.538582
40 1 3.19496 12.4815 11.2625 1.15237 -0.204828 -1.1885
41 1 3.68865 13.259 11.43 0.685486 1.24464 -0.364914
42 1 3.82311 13.606 12.3041 -0.0313808 -0.161931 1.15628
43 1 3.81139 13.4732 13.2552 -0.249289 2.3887 0.412474
44 1 4.66622 13.9245 13.3147 1.07038 1.04342 0.300452
45 1 4.97253 14.4371 14.1223 -1.29931 0.801666 1.06868
46 1 4.59487 14.9465 14.8771 -0.0321086 0.485826 -0.943826
47 1 4.32631 15.6416 15.4803 1.00597 0.999043 1.08016
48 1 5.10288 15.0354 15.7288 1.13225 -0.487118 0.811407
49 1 5.36683 15.1905 16.6694 -0.906613 -0.595267 -0.341988
50 1 4.90457 14.5014 17.1268 -0.833486 0.837349 -0.113051
51 1 0.248942 1.88639 1.65558 -0.0232689 -1.33833 0.190358
52 1 0.998023 1.9034 2.25062 -0.7264 -1.49645 -3.116
53 1 1.79645 2.44399 2.02069 -0.505049 -1.57241 -0.362399
54 1 2.60256 1.99049 1.67946 0.89292 -0.693099 1.33396
55 1 2.87839 2.02903 2.65046 -1.38288 -0.0801617 -0.0842462
56 1 2.45761 1.51883 3.35795 0.0589341 0.0904945 -0.820611
57 1 2.47571 0.566615 3.41344 0.661943 -1.48235 0.0595952
58 1 2.06943 0.0670407 4.14031 -0.523975 0.240251 1.19078
59 1 1.2303 -0.111518 3.63337 -0.157983 0.909524 -0.655418
60 1 1.70373 -0.518261 2.90807 1.34099 0.79302 1.03131
61 1 1.90562 -1.39966 3.25521 0.589847 -0.486219 1.61099
62 1 1.70831 -1.32634 4.16596 2.16141 0.474073 0.165919
63 1 1.81867 -2.27543 4.42121 0.109654 0.583541 -0.131218
64 1 0.96637 -2.36591 4.05602 -0.184263 -1.28957 1.13228
65 1 -0.0170798 -2.42562 4.30805 0.422246 0.746655 0.413959
66 1 0.070767 -1.51195 4.57623 -0.595159 0.833473 1.16535
67 1 0.274836 -1.48268 3.58694 -1.12855 -2.11501 0.756225
68 1 0.00184097 -1.96478 2.78685 0.0759251 2.67925 1.68851
69 1 -0.483036 -2.32962 2.08864 -0.96675 -0.467564 -0.0155201
70 1 -1.13456 -2.69827 1.48917 -1.48101 0.151248 -0.880381
71 1 -1.02718 -3.59823 1.54898 2.04226 0.430496 0.848451
72 1 -1.73972 -4.16044 1.37521 -0.0322017 0.128781 0.201282
73 1 -1.54596 -4.64727 2.1472 -0.5798 0.390445 -1.30758
74 1 -0.78046 -5.10754 2.5113 -1.74484 -1.82426 -0.291276
75 1 0.124157 -4.95459 1.97627 0.462097 -1.04161 -0.528351
76 1 0.976909 -4.6155 1.75077 -1.87078 -1.19091 -1.58619
77 1 1.54567 -5.14488 1.1542 -1.07891 0.518479 0.121194
78 1 0.888479 -5.8485 0.791132 2.11133 -0.70262 -1.48069
79 1 0.794051 -6.80843 0.954108 1.47347 -0.993399 -1.58545
80 1 1.50423 -7.02649 1.60249 0.46555 0.0589607 -0.723794
81 1 1.80114 -8.02882 1.44693 -1.11144 0.320477 -0.285612
82 1 2.57981 -7.49992 1.73299 -0.645702 -0.748016 0.924355
83 1 3.49367 -7.52905 1.29177 0.451786 -1.67038 -0.207501
84 1 3.37674 -7.20498 0.442075 0.605007 -0.912049 0.716712
85 1 4.03935 -7.80435 0.236486 -0.213167 -0.432295 -0.882445
86 1 3.35681 -8.46788 0.463839 -1.01668 -1.90885 -0.565652
87 1 3.2654 -9.44651 0.261418 -0.757158 1.15716 -0.540644
88 1 2.90884 -9.86153 -0.573436 -0.882995 0.778265 -0.385221
89 1 2.47234 -10.2571 -1.38027 2.00317 0.638547 1.08988
90 1 1.77845 -10.9097 -1.63127 -1.09873 1.65989 -0.356718
91 1 1.09795 -11.2481 -2.17607 1.60214 0.793785 0.747079
92 1 0.776996 -12.1126 -1.84446 -0.331001 0.973821 -1.12114
93 1 0.373781 -12.0827 -0.886495 -0.0205549 -0.250274 -0.841163
94 1 -0.083736 -12.8047 -0.384233 -0.535982 0.68526 -0.280672
95 1 -0.773823 -12.6222 -1.02034 -0.39067 -0.887718 0.802627
96 1 -0.647501 -13.2839 -1.71027 -0.263994 -0.437825 -0.300545
97 1 -0.130345 -13.9281 -1.13425 1.41149 0.752218 -0.226179
98 1 0.458642 -14.6346 -0.998536 -1.38476 1.63223 -0.142288
99 1 1.05684 -15.364 -0.56264 -0.892029 0.0132749 -0.49919
100 1 0.923751 -15.4209 0.390647 0.560657 -1.12631 0.484803
ITEM: TIMESTEP
4
ITEM: NUMBER OF ATOMS
100
ITEM: BOX BOUNDS pp pp pp
-4.8359586999999998e+01 5.1640413000000002e+01
-4.8810423999999998e+01 5.1189576000000002e+01
-4.6257793999999997e+01 5.3742206000000003e+01
ITEM: ATOMS id type xu yu zu vx vy vz
1 1 -0.558712 2.39548 1.59898 0.852686 0.798825 1.4336
2 1 -0.57727 3.08597 2.20543 -0.559557 1.55784 -0.0972423
3 1 -0.518614 3.95488 2.64447 -0.225367 -1.27222 -0.519272
4 1 -1.47142 3.93955 2.94288 -0.116363 1.17193 0.314599
5 1 -1.23143 3.29941 3.57704 -0.632725 -1.07714 1.16341
6 1 -0.343431 3.14714 3.25378 0.429352 -0.0500181 -0.511515
7 1 0.356972 2.56841 3.52581 0.23165 0.262047 -2.66495
8 1 0.107136 2.08776 2.68734 0.28505 -0.911874 1.56847
9 1 -0.370623 1.36909 3.11879 1.66774 -0.821131 -0.302296
10 1 -0.951739 1.60798 3.80444 1.14225 0.269196 0.283679
11 1 -1.79176 2.01506 3.5409 0.319465 0.327264 1.50341
12 1 -2.07835 1.54179 4.33982 1.0085 -0.102345 -0.773033
13 1 -2.4849 2.38874 4.62285 0.768283 -1.46205 -1.73346
14 1 -2.4494 3.34934 4.7593 -2.71693 0.119135 -0.127357
15 1 -1.9907 3.97975 5.35665 -0.126232 0.146662 -0.480012
16 1 -1.4483 4.78192 5.11899 0.207726 -1.32448 0.000230613
17 1 -1.78265 5.01568 4.16405 -1.12158 0.119075 -0.0760383
18 1 -2.21925 5.73558 4.70883 1.59751 0.154584 1.86921
19 1 -1.87224 6.10181 5.45166 -0.806539 1.96008 -0.804283
20 1 -1.40542 6.0694 6.27849 0.200313 0.459273 0.959777
21 1 -1.27203 5.36934 6.89152 0.444503 -0.482868 0.774069
22 1 -1.58703 5.6248 7.84448 0.547749 2.09227 0.984756
23 1 -0.94752 6.37443 7.89684 0.379994 -0.451869 0.436232
24 1 -0.526906 5.99 8.72907 -0.0839594 -0.374975 0.305104
25 1 -0.179548 6.72393 9.1973 0.503608 -0.189872 1.51228
26 1 -0.762455 7.23616 9.7249 0.74589 -1.72062 1.35081
27 1 -1.43115 7.18772 10.4089 -0.970692 -0.349815 -0.585083
28 1 -2.22306 7.39162 10.8659 -1.5394 1.31474 -0.279439
29 1 -3.02305 7.88307 10.7216 -0.0133995 -0.445803 0.565963
30 1 -2.59902 8.58724 11.2101 0.984197 -0.827262 0.543475
31 1 -1.61391 8.61909 11.5019 -0.0151733 0.55819 -0.305588
32 1 -1.30684 9.3024 12.1587 0.613745 0.352063 -0.0475697
33 1 -0.51156 9.74256 12.5609 -0.381828 -1.12869 0.505442
34 1 -0.03184 10.6425 12.4976 -1.61627 0.582917 1.05707
35 1 0.593997 11.1359 11.9503 0.909283 0.567814 0.168931
36 1 0.947395 11.9046 12.3681 -1.04046 0.172031 -0.851093
37 1 1.24384 12.5445 11.7804 -2.49546 0.319988 -0.594653
38 1 1.46584 13.4599 11.3631 -0.11563 -1.20976 -1.65784
39 1 2.29362 12.8508 11.4024 0.146703 1.13124 -0.562302
40 1 3.20031 12.4802 11.2565 0.988738 -0.268682 -1.19533
41 1 3.69225 13.2655 11.4281 0.744538 1.33169 -0.38498
42 1 3.82297 13.6053 12.31 -0.024711 -0.143172 1.18272
43 1 3.81022 13.4852 13.2573 -0.212983 2.40571 0.431121
44 1 4.67162 13.9299 13.3166 1.08184 1.10616 0.427186
45 1 4.96581 14.441 14.1275 -1.37879 0.762601 1.00245
46 1 4.59465 14.9487 14.8719 -0.0625355 0.437475 -1.10371
47 1 4.33171 15.6463 15.4859 1.1591 0.875602 1.12443
48 1 5.10841 15.0334 15.7333 1.06725 -0.3424 0.958608
49 1 5.36231 15.1876 16.6673 -0.890947 -0.548804 -0.47809
50 1 4.90032 14.5054 17.1264 -0.875366 0.775292 -0.0715227
51 1 0.248828 1.87966 1.65642 -0.0551814 -1.35107 0.122741
52 1 0.994905 1.89604 2.23489 -0.502449 -1.44958 -3.14974
53 1 1.7939 2.43585 2.01886 -0.51369 -1.6844 -0.37172
54 1 2.60693 1.98717 1.68665 0.850929 -0.638687 1.52718
55 1 2.87132 2.02856 2.64968 -1.43597 -0.0976318 -0.226443
56 1 2.45794 1.51942 3.35378 0.0677194 0.115403 -0.836645
57 1 2.47897 0.559055 3.41384 0.640712 -1.52226 0.0986855
58 1 2.06657 0.0682395 4.146 -0.622013 0.241 1.07956
59 1 1.22978 -0.106886 3.63031 -0.0515155 0.945882 -0.562803
60 1 1.71048 -0.514399 2.91322 1.36394 0.738124 1.02889
61 1 1.90863 -1.40204 3.26285 0.617997 -0.45741 1.41497
62 1 1.71907 -1.32421 4.16724 2.13524 0.382957 0.37317
63 1 1.8196 -2.27219 4.42065 0.257081 0.707407 -0.0921079
64 1 0.964568 -2.37243 4.06163 -0.526272 -1.31756 1.11134
65 1 -0.0144997 -2.42191 4.30999 0.603148 0.73686 0.361451
66 1 0.0678873 -1.50772 4.58164 -0.557185 0.857379 0.994839
67 1 0.269064 -1.49334 3.59105 -1.1686 -2.12604 0.921369
68 1 0.00256074 -1.95109 2.79584 0.16821 2.75356 1.82713
69 1 -0.488155 -2.33217 2.08814 -1.05305 -0.533553 -0.140913
70 1 -1.14209 -2.69656 1.48469 -1.53046 0.517141 -0.908422
71 1 -1.0164 -3.59668 1.5534 2.24252 0.183373 0.91196
72 1 -1.74043 -4.15994 1.37576 -0.225146 0.109988 0.00408624
73 1 -1.54874 -4.64556 2.14103 -0.521193 0.277939 -1.13885
74 1 -0.788605 -5.11654 2.50947 -1.51097 -1.76996 -0.448762
75 1 0.125656 -4.95998 1.97404 0.106618 -1.12584 -0.351901
76 1 0.96787 -4.62149 1.74266 -1.72967 -1.18486 -1.65377
77 1 1.5398 -5.14256 1.15473 -1.2559 0.4025 0.0823503
78 1 0.899376 -5.85181 0.783958 2.24247 -0.629103 -1.38907
79 1 0.801625 -6.81326 0.946321 1.55376 -0.937892 -1.532
80 1 1.50656 -7.0268 1.5986 0.469418 -0.179751 -0.830611
81 1 1.79558 -8.02643 1.44567 -1.11063 0.633331 -0.216834
82 1 2.57682 -7.50381 1.73733 -0.54321 -0.80624 0.808819
83 1 3.49559 -7.53766 1.29164 0.311319 -1.77392 0.164381
84 1 3.37912 -7.20878 0.445129 0.343922 -0.60135 0.502107
85 1 4.03869 -7.80714 0.23195 -0.0557506 -0.69614 -0.931279
86 1 3.35182 -8.47769 0.460885 -0.964621 -1.97852 -0.614725
87 1 3.26152 -9.44048 0.258494 -0.796562 1.22926 -0.634157
88 1 2.9044 -9.85763 -0.575357 -0.88639 0.787906 -0.367157
89 1 2.48234 -10.254 -1.37459 1.97579 0.612947 1.16293
90 1 1.77341 -10.9011 -1.63277 -0.876588 1.8071 -0.21435
91 1 1.10561 -11.2445 -2.17249 1.43582 0.651959 0.661616
92 1 0.775169 -12.1075 -1.84957 -0.399677 1.05115 -0.920758
93 1 0.373776 -12.0842 -0.891114 0.0187355 -0.344637 -1.00683
94 1 -0.0862303 -12.8011 -0.385752 -0.451385 0.766028 -0.31625
95 1 -0.775815 -12.6267 -1.01639 -0.416278 -0.895287 0.760959
96 1 -0.648608 -13.2863 -1.7115 -0.179057 -0.530974 -0.187902
97 1 -0.123811 -13.9237 -1.13569 1.17593 1.03935 -0.357894
98 1 0.452377 -14.6272 -0.998919 -1.09293 1.27683 -0.00307202