ITEM: TIMESTEP
0
ITEM: NUMBER OF ATOMS
100
ITEM: BOX BOUNDS pp pp pp
-4.8359586999999998e+01 5.1640413000000002e+01
-4.8810423999999998e+01 5.1189576000000002e+01
-4.6257793999999997e+01 5.3742206000000003e+01
ITEM: ATOMS id type xu yu zu vx vy vz
91 1 1.07197 -11.2623 -2.18769 1.76306 1.0595 0.721857
96 1 -0.641685 -13.2796 -1.70356 -0.501945 -0.127284 -0.567483
92 1 0.78043 -12.1253 -1.82326 -0.130211 0.722806 -1.69117
90 1 1.79733 -10.933 -1.62447 -1.2671 1.53574 -0.453383
89 1 2.443 -10.2662 -1.39382 1.8293 0.498045 0.656966
99 1 1.06725 -15.3606 -0.557355 -0.526543 -0.43617 -0.191557
98 1 0.483909 -14.6645 -0.993871 -1.85122 2.19494 -0.437939
97 1 -0.154911 -13.9352 -1.13332 1.74425 0.330651 0.0663889
95 1 -0.767934 -12.609 -1.03245 -0.426005 -0.88095 0.765144
93 1 0.37494 -12.0812 -0.877511 -0.130214 0.0497345 -0.368509
88 1 2.92148 -9.87341 -0.56814 -0.774526 0.824923 -0.279273
94 1 -0.0744261 -12.8129 -0.381448 -0.670718 0.400633 -0.0589134
100 1 0.915337 -15.404 0.383395 0.566119 -1.12473 0.450822
87 1 3.276 -9.46097 0.267694 -0.66287 0.714373 -0.307947
86 1 3.37241 -8.44277 0.471211 -1.01306 -1.34186 -0.421789
85 1 4.04608 -7.80245 0.248694 -0.654128 0.0684484 -0.756735
84 1 3.36264 -7.18539 0.427198 1.1859 -1.59119 1.19078
78 1 0.859998 -5.83604 0.815377 1.67773 -0.966547 -1.7478
81 1 1.81763 -8.0265 1.45275 -1.07315 -0.621451 -0.485474
83 1 3.48419 -7.50593 1.30193 0.77632 -1.44943 -1.02056
79 1 0.773886 -6.79253 0.979235 1.20981 -1.11324 -1.77038
77 1 1.55719 -5.15486 1.15204 -0.428985 0.788014 0.138884
72 1 -1.74507 -4.16521 1.36873 0.810953 0.632854 0.598513
71 1 -1.05168 -3.60886 1.53803 1.15229 0.848605 0.599348
70 1 -1.11367 -2.69244 1.50146 -1.27703 -0.838498 -0.727951
1 1 -0.576225 2.37306 1.56419 0.926204 1.29963 1.93535
82 1 2.5913 -7.48993 1.71688 -0.847273 -0.594206 1.19356
80 1 1.49728 -7.03282 1.6108 0.463983 0.779567 -0.379303
73 1 -1.53659 -4.65457 2.16905 -0.632853 0.519655 -1.51287
75 1 0.111443 -4.94009 1.98742 1.08641 -0.939565 -0.907623
76 1 1.00697 -4.59864 1.77295 -2.05844 -0.99549 -1.37176
69 1 -0.472109 -2.32527 2.08349 -0.433693 -0.0745126 0.806053
51 1 0.250451 1.90603 1.65235 -0.268214 -1.27488 0.180296
52 1 1.01281 1.92694 2.29518 -1.17869 -1.64123 -2.75824
53 1 1.80356 2.46498 2.02603 -0.428533 -1.22822 -0.356822
54 1 2.58859 2.00209 1.66451 0.946775 -0.847348 0.633648
2 1 -0.566107 3.06567 2.2147 -0.565169 0.520796 -0.754688
74 1 -0.7493 -5.07925 2.51256 -2.37771 -1.93062 0.0902317
68 1 0.00542794 -2.00078 2.76931 -0.678031 2.01118 0.439946
60 1 1.68375 -0.530417 2.89254 1.34864 0.763282 1.04147
8 1 0.098328 2.10893 2.66662 0.629434 -1.19094 0.387259
55 1 2.89731 2.02939 2.64842 -1.1075 0.0536856 0.353825
4 1 -1.46645 3.92313 2.92805 -0.316548 0.382166 1.25164
3 1 -0.520087 3.97802 2.65296 0.34634 -0.941959 -0.292944
67 1 0.290276 -1.45237 3.57747 -0.908041 -1.87494 0.587777
61 1 1.89722 -1.39235 3.22876 0.540233 -0.442416 1.79004
59 1 1.23504 -0.124552 3.6448 -0.464581 0.84323 -0.833926
57 1 2.46547 0.586736 3.41325 0.693557 -1.13644 -0.0196066
9 1 -0.397365 1.38495 3.11734 0.967004 -0.813245 0.485333
56 1 2.45728 1.51984 3.36921 -0.0336171 -0.324034 -0.645902
11 1 -1.79834 2.00636 3.51412 0.406219 0.556842 1.12132
7 1 0.351478 2.55883 3.57306 0.386225 0.683565 -1.96722
5 1 -1.21858 3.31455 3.56155 -0.583982 -0.372348 0.256482
6 1 -0.349956 3.14659 3.26501 0.0715776 0.151876 -0.585134
65 1 -0.0190941 -2.43712 4.30053 -0.154558 0.7917 0.592774
64 1 0.961382 -2.34721 4.03871 0.805281 -1.20753 1.1558
63 1 1.82008 -2.28129 4.42395 -0.247684 0.20228 -0.214865
62 1 1.67573 -1.33584 4.16637 2.1574 0.80341 -0.117626
58 1 2.07517 0.063335 4.12038 -0.253036 0.261896 1.43431
12 1 -2.09929 1.54946 4.35359 1.07823 -0.739531 -0.551924
10 1 -0.980973 1.60523 3.80498 1.74384 0.0275832 -0.358686
17 1 -1.76008 5.01563 4.17714 -1.12351 -0.103146 -1.15355
66 1 0.0805594 -1.52369 4.55508 -0.709545 0.718323 1.63889
13 1 -2.49844 2.41415 4.65622 0.57671 -0.945388 -1.57666
14 1 -2.39385 3.34857 4.76343 -2.81553 -0.0947009 -0.257532
16 1 -1.45872 4.80529 5.11213 0.824884 -0.971224 0.623469
18 1 -2.25329 5.7233 4.65806 1.65375 0.878967 2.83549
15 1 -1.98597 3.98025 5.36313 -0.390288 -0.263298 -0.199064
19 1 -1.85436 6.06761 5.4725 -0.685663 1.62792 -0.700017
20 1 -1.40709 6.06403 6.26124 -0.164406 0.0723394 0.540464
21 1 -1.28288 5.37712 6.88769 0.62091 -0.269143 -0.3413
22 1 -1.59161 5.58529 7.81698 -0.111378 1.78446 1.70176
23 1 -0.955884 6.37642 7.8935 0.503645 0.299836 -0.0790671
24 1 -0.530607 5.99489 8.71394 0.458824 -0.0818626 1.20547
25 1 -0.185088 6.73115 9.16849 0.105067 -0.61598 1.29417
26 1 -0.779091 7.27243 9.69938 0.849027 -1.84862 1.26424
28 1 -2.19849 7.367 10.8748 -0.77732 1.07471 -0.603712
27 1 -1.40624 7.19326 10.4176 -1.54649 -0.200756 -0.27125
29 1 -3.0228 7.89108 10.7099 -0.130734 -0.296818 0.574174
30 1 -2.60941 8.60466 11.2024 0.052297 -0.898645 0.233435
31 1 -1.62087 8.61139 11.5088 0.724922 0.216583 -0.375996
40 1 3.17412 12.4819 11.2798 1.60534 0.201722 -1.11407
39 1 2.28649 12.8325 11.4128 0.636357 0.659392 -0.495918
41 1 3.6802 13.2429 11.4346 0.421592 0.879484 -0.219036
38 1 1.47379 13.4705 11.4001 -0.696128 0.125459 -2.01694
32 1 -1.31583 9.29446 12.1586 0.242282 0.408338 0.0340443
35 1 0.576107 11.124 11.9453 0.742206 0.454268 0.359698
37 1 1.29851 12.5523 11.783 -2.88654 -0.932257 0.187763
42 1 3.82383 13.6091 12.2888 -0.0699501 -0.24672 0.814582
33 1 -0.50522 9.76899 12.5479 -0.189711 -1.4354 0.813185
34 1 -0.00407059 10.6235 12.4777 -1.09163 1.34838 0.842083
36 1 0.965845 11.8962 12.3917 -0.824751 0.617663 -1.32415
43 1 3.81564 13.4377 13.2487 -0.300385 2.34517 0.507054
44 1 4.65083 13.9104 13.3131 0.962984 0.819998 -0.0863124
45 1 4.9897 14.4247 14.1056 -0.967787 0.822577 1.11341
46 1 4.59504 14.9366 14.8855 -0.00942148 0.893336 -0.0697209
48 1 5.08534 15.046 15.7214 1.15381 -0.905911 0.103892
47 1 4.31408 15.6249 15.4657 0.664488 1.17187 0.843213
50 1 4.91658 14.4881 17.129 -0.794531 0.895631 -0.151521
49 1 5.38009 15.1997 16.6711 -0.822309 -0.585547 0.112431
ITEM: TIMESTEP
10000
ITEM: NUMBER OF ATOMS
100
ITEM: BOX BOUNDS pp pp pp
-4.8359586999999998e+01 5.1640413000000002e+01
-4.8810423999999998e+01 5.1189576000000002e+01
-4.6257793999999997e+01 5.3742206000000003e+01
ITEM: ATOMS id type xu yu zu vx vy vz
98 1 -1.41109 -1.99044 -3.23603 -0.730712 0.279564 1.68523
99 1 -1.72769 -2.46294 -4.03348 -0.968969 0.00123638 0.393793
95 1 -0.916295 -2.07234 -1.02749 -0.573629 -0.596042 0.985666
96 1 -1.73916 -2.24158 -1.54261 0.154494 1.34885 0.299128
97 1 -1.47744 -1.75505 -2.25154 -0.650063 0.198044 -0.334304
93 1 -2.28896 -1.14722 -1.26146 1.45157 -0.55859 -0.876877
100 1 -2.55761 -2.61636 -3.45573 0.00846073 0.920179 0.525536
94 1 -1.22239 -1.18186 -1.35483 1.03552 -0.701175 -0.561795
91 1 -2.25885 -0.82191 0.275981 1.09628 1.87916 0.642534
92 1 -1.92805 -1.53188 -0.38605 -0.0883958 0.870983 -1.31126
90 1 -1.78968 -0.308493 1.00589 0.300112 1.41676 0.748852
86 1 -0.0610889 -0.632358 0.318295 -1.42405 2.51793 0.164553
84 1 1.39166 -0.0128917 0.597032 -0.542148 -1.21571 -2.42502
89 1 -1.10311 -1.04423 0.946951 0.18993 0.0392569 -0.57971
83 1 1.41807 -0.551818 1.39721 0.612615 -0.696669 0.327754
85 1 0.481356 0.165899 0.239853 -0.735159 0.264764 0.899152
81 1 0.779416 0.146158 2.47915 1.73354 0.657317 0.406759
88 1 -0.28656 -1.37103 1.32866 -0.0692595 0.610284 -0.895316
82 1 0.763909 0.26711 1.52809 -0.185673 0.251793 -1.42485
87 1 -0.218474 -0.399646 1.27086 -0.798718 0.342208 0.562431
80 1 1.74044 -0.011052 2.56023 0.658175 -0.134022 1.34738
74 1 0.0196361 -3.61415 4.7996 -0.834357 0.0955753 0.237615
77 1 1.54374 -2.37007 3.86471 0.529622 -0.404989 -0.173433
79 1 1.83772 -1.03231 2.52151 0.141089 -1.34606 1.69735
78 1 1.93391 -1.62155 3.32722 -0.179923 1.37639 0.626479
73 1 -0.348812 -4.51002 5.06261 2.10403 0.731812 -0.770182
75 1 0.833814 -3.58282 4.36029 -0.685787 -1.19415 0.44304
76 1 0.593307 -2.70748 4.01405 -0.630341 0.682771 0.553808
68 1 2.09168 -4.81871 7.56029 1.36629 0.885996 -0.696435
72 1 0.214506 -4.7427 5.88479 1.55251 0.239607 0.64685
69 1 1.37979 -5.29434 7.07086 -1.01711 0.659543 0.907141
49 1 -3.17804 8.84144 1.92546 -0.482046 -1.63158 0.655048
50 1 -2.51114 8.1535 1.67105 1.34197 -0.745228 -1.41478
71 1 0.976861 -5.2385 6.11018 -0.020051 0.580158 0.151775
70 1 1.40383 -6.08049 6.45968 -0.262968 -0.375401 0.982402
44 1 -1.01223 6.79799 4.17667 -0.077258 1.09516 2.01669
48 1 -3.37525 8.12527 2.50765 -1.9244 0.996282 -0.71918
67 1 1.29275 -4.78873 8.04164 -1.53029 -0.688347 -0.450006
66 1 0.923047 -3.92774 7.84955 0.117884 0.852469 0.667008
65 1 0.104554 -4.37599 7.92967 -0.761017 -0.121081 1.37634
64 1 -0.546106 -4.81672 8.47186 0.234884 -0.593439 -1.12253
46 1 -2.25235 7.31553 3.65178 -0.604018 0.825789 -0.597245
47 1 -2.56598 8.15015 3.22885 -0.0741706 -0.884631 0.975858
45 1 -1.79897 6.47631 3.63355 0.543261 -0.82034 -0.24649
63 1 -0.00884125 -4.35354 9.1279 -1.43687 -1.14043 1.27302
43 1 -0.346129 6.8305 4.93379 0.846671 0.184524 -0.624158
62 1 -0.726435 -4.32794 9.81926 0.0918714 0.152287 2.01601
42 1 -0.259871 7.23639 5.78117 -0.636755 0.396543 1.66496
41 1 -0.192799 6.30227 5.93603 -0.429399 -0.286683 -0.602282
59 1 -1.4379 -3.82757 7.56417 -0.0859292 -0.595906 -0.678733
61 1 -1.58419 -4.06389 9.44705 -0.641429 0.937506 1.10308
1 1 0.439636 1.41582 6.55112 0.170186 0.336222 -0.357408
2 1 0.983243 1.94986 5.90905 0.827226 1.36843 -1.57312
40 1 -0.29511 5.65637 6.61294 1.87906 -1.9232 0.54783
58 1 -0.939451 -3.2985 6.90913 0.0552391 0.590855 -0.19533
60 1 -1.52624 -3.85301 8.50647 0.380213 1.56797 -1.08544
51 1 0.870554 0.531238 6.60105 0.217841 0.226054 -0.799597
3 1 1.37647 1.90459 6.8108 -1.2566 -0.643092 0.419032
4 1 2.19933 1.44529 7.08746 0.41295 -0.845816 -0.909568
5 1 2.1419 1.2982 8.03038 0.510457 1.16595 0.505572
6 1 1.65221 0.8954 8.73449 0.50648 -0.497134 0.189724
37 1 -0.920475 6.20568 8.80828 -0.395309 -1.38048 -1.06664
57 1 -0.916838 -2.62932 6.22357 1.84801 -0.823343 0.377987
54 1 0.0211251 -0.875772 7.76289 -0.162566 -1.47493 -0.43644
52 1 1.26494 0.0483839 7.37165 -0.188759 -1.21838 -0.80185
53 1 1.02561 -0.768329 7.84225 0.166349 0.334735 -0.256279
7 1 1.38614 1.78373 9.01437 -1.83608 0.797146 0.389394
39 1 -0.756247 5.90895 7.42215 1.3323 0.621647 0.234842
38 1 -0.87622 6.6764 7.98976 -0.801189 0.598819 -0.839168
36 1 -1.66265 5.99467 9.43247 -0.0867396 -1.78998 0.723486
56 1 -0.38661 -2.01855 6.79739 0.347773 -0.76735 -0.943325
55 1 -0.272845 -1.01117 6.84816 -0.92411 -2.49649 -0.536429
10 1 0.839336 3.11223 10.1108 0.685134 0.824206 -2.59103
11 1 1.45596 3.50072 9.49143 0.0837671 0.955852 0.404924
12 1 1.91724 2.66832 9.37943 -2.886 0.78254 0.086214
13 1 1.82587 2.52237 10.3307 -1.30285 0.106353 0.492655
32 1 -1.39458 6.61509 12.7125 0.402552 0.475925 -0.307463
34 1 -0.979971 6.43252 11.2495 0.0963248 0.569872 -2.16646
35 1 -1.46495 6.34498 10.3496 0.818542 1.21136 0.352794
9 1 0.350682 2.76471 9.30962 -0.351972 0.130921 1.87346
8 1 1.10163 2.72129 8.74202 -0.866442 1.75465 0.626563
16 1 1.15432 2.36374 12.8332 -0.437954 -0.00848277 0.79807
19 1 -0.960404 1.54097 11.8416 -1.03709 -1.96371 0.170181
14 1 1.98757 2.19944 11.1965 0.334671 1.4463 -0.643384
20 1 -1.20747 2.29345 11.2889 0.766664 -1.2481 0.927451
21 1 -1.6494 3.05242 11.7538 1.03308 1.61855 -1.19729
31 1 -1.1324 5.79622 12.3521 0.434042 -1.90965 0.370043
33 1 -1.79005 6.68817 11.8223 -0.44848 0.464046 0.267858
18 1 -0.754325 2.17836 12.5394 1.44463 0.298251 -0.20323
17 1 0.18398 2.43163 12.7331 -1.10651 -0.336231 0.17628
15 1 1.33755 1.97397 11.9427 -0.357791 -1.40918 0.805599
23 1 -2.88326 4.28741 11.0449 0.945427 -1.08404 1.27184
30 1 -1.12045 5.16303 13.0502 0.0215677 0.911108 -0.0825225
22 1 -2.1952 3.88789 11.6027 1.43024 -2.92955 0.133771
24 1 -2.43751 4.57848 10.2469 0.924741 -0.246883 -0.646094
25 1 -1.65488 4.08047 10.515 0.136371 -1.05909 2.3566
26 1 -1.28557 4.24801 11.3567 -0.471829 -0.779794 -2.28411
27 1 -0.458952 3.85992 11.7868 -0.63077 0.563711 -0.984128
29 1 -0.187033 5.3487 12.9821 -1.17269 0.0297189 -0.447452
28 1 -0.435392 4.6472 12.3701 -0.420358 -0.593411 -1.03915
ITEM: TIMESTEP
20000
ITEM: NUMBER OF ATOMS
100
ITEM: BOX BOUNDS pp pp pp
-4.8359586999999998e+01 5.1640413000000002e+01
-4.8810423999999998e+01 5.1189576000000002e+01
-4.6257793999999997e+01 5.3742206000000003e+01
ITEM: ATOMS id type xu yu zu vx vy vz
69 1 1.47091 0.0411289 2.76415 0.415647 2.02963 -0.400469
70 1 2.01893 0.805325 2.74797 0.111453 -2.25821 -1.76049
71 1 1.79525 1.79431 2.9258 -0.444647 1.14719 -1.62303
79 1 4.78309 2.49527 4.33184 -0.0604021 0.0533825 -1.58254
72 1 1.65529 2.74002 2.86883 -1.27725 1.08163 0.53353
65 1 2.16382 0.0203098 4.55628 -0.621596 0.432527 -0.165389
66 1 1.80139 -0.374701 3.84197 1.057 -2.51524 0.401129
67 1 1.67196 -1.23247 3.60036 0.699697 0.244574 0.041509
95 1 5.41348 -1.16649 3.5174 -1.40655 0.0734758 0.739521
68 1 1.31257 -0.934489 2.78557 0.208865 0.929508 2.02358
80 1 5.67008 2.14402 4.72114 1.16319 1.05388 1.85879
73 1 2.58813 2.505 2.80727 0.152818 -1.04648 -0.58738
63 1 0.383572 0.690869 4.40479 0.266138 1.35846 -0.680526
64 1 1.23576 0.249369 4.47628 0.31664 2.07353 0.114264
89 1 8.0929 -0.0270056 2.71354 1.27955 -0.420743 0.678732
93 1 6.45249 -0.828953 2.06075 1.1703 -0.209719 -1.22788
88 1 8.13633 -0.658567 3.49457 -0.182284 1.06514 -0.559067
94 1 5.89291 -0.87372 2.76552 0.738605 -0.00110018 -1.12882
87 1 7.14852 -0.723415 3.3803 0.00443217 0.57173 -1.01068
74 1 3.43216 2.98134 2.93311 1.15462 0.87908 0.593978
81 1 5.77143 2.9004 4.09733 -0.0419425 -0.313928 -0.10935
75 1 4.39893 3.26017 2.94506 -0.961524 -0.685202 0.659249
77 1 4.8807 3.5782 3.95667 0.354986 -2.28685 1.52378
78 1 4.76286 3.30072 4.84922 -0.0952624 -0.157322 -0.659749
62 1 0.690269 0.561886 5.32822 -0.15101 -0.0576869 1.3676
92 1 6.38513 0.160002 2.20478 -2.08867 0.847153 0.62531
91 1 6.9309 0.0236549 1.45336 -0.0956262 -0.244042 -0.770119
90 1 7.3529 -0.394914 2.22082 -1.06265 -1.9037 -0.105826
96 1 4.80411 -0.402624 3.58235 1.76161 -1.99562 0.514153
76 1 3.99371 3.75195 3.65507 -1.25874 -1.24735 -0.437843
82 1 5.51987 2.28398 3.37569 0.730445 0.842805 -0.124429
61 1 0.214891 1.21794 5.79114 0.493782 -1.41996 0.495335
98 1 4.43896 0.0161137 4.75499 1.46225 0.415217 0.573164
97 1 4.47506 0.508716 3.91006 -1.05728 0.0469578 0.264903
86 1 6.83049 -0.0478307 3.99026 -0.015284 0.74484 0.49706
83 1 5.56704 1.3334 3.63281 1.02677 2.15375 0.0116064
85 1 6.40917 0.433294 3.27635 0.705646 -1.35308 1.40471
60 1 -0.240074 0.394928 5.6462 -0.0508289 -1.33099 1.35296
99 1 3.86812 0.874269 4.6863 0.032353 -3.10256 1.39314
84 1 6.48001 1.40045 3.30664 -0.645561 -0.354761 1.26876
59 1 -0.330004 -0.355867 5.07268 -0.533553 1.13709 0.601432
58 1 -1.20546 -0.255819 5.40571 -0.0195607 -0.928413 -0.171625
100 1 3.51493 0.140911 4.22742 -0.944736 -0.0091116 -1.80521
57 1 -1.23667 -1.05114 4.8919 0.980236 0.358457 0.465646
56 1 -0.600666 -1.25518 5.59186 -1.48408 -2.14615 0.148654
53 1 1.18831 -1.4973 5.87108 -0.243949 1.96841 -0.497821
55 1 -0.0834265 -1.96651 5.9872 2.15434 1.68955 1.03707
54 1 0.820669 -2.35154 5.79611 -1.00348 2.67198 0.681742
52 1 1.86879 -1.71719 6.53351 -1.29217 -0.00118896 -0.76858
51 1 2.25804 -2.6068 6.85253 0.231395 0.0443661 -0.25504
15 1 -3.62748 0.447423 11.0005 -0.969634 0.403276 0.810335
17 1 -3.9341 0.46846 9.74683 -0.0647095 0.303299 -1.67567
18 1 -3.75709 1.23015 9.24729 -1.69596 -0.373659 -0.745496
1 1 1.72218 -3.36589 7.0686 -0.435668 1.25337 0.201927
16 1 -3.10584 0.197307 10.1682 0.810394 0.591252 -0.390097
14 1 -3.9179 0.472424 11.889 0.658253 0.742358 1.55332
2 1 1.18107 -2.95405 7.73356 0.416282 0.262364 -0.80365
5 1 -1.04384 -1.57962 8.41272 0.720396 0.762395 -1.05121
6 1 -1.54436 -1.98209 9.20642 1.51745 -1.62306 -1.44234
7 1 -0.646025 -2.13394 9.4621 0.772381 0.646674 -1.68133
13 1 -3.94252 -0.503266 11.5685 -0.143909 -1.18768 0.0785873
12 1 -2.97883 -0.45545 11.4853 -0.693184 0.36295 1.49478
19 1 -4.10164 2.10667 9.39702 -1.42288 1.9426 0.444821
39 1 -9.28495 3.41129 12.0347 -0.910714 1.12667 1.01439
3 1 0.518278 -2.33451 8.03049 0.209381 0.802723 0.637778
4 1 -0.177369 -1.58394 8.07002 1.07788 0.966638 -0.132805
8 1 -0.907897 -1.22973 9.77537 0.589638 -1.17727 0.206274
10 1 -1.11072 -0.417699 11.0821 1.07224 -0.975546 -1.86894
11 1 -2.03452 -0.392776 11.2583 -0.627556 -0.351058 0.67822
41 1 -10.3926 3.66776 12.8919 1.3991 -0.0468876 -0.943475
20 1 -4.69804 1.95779 10.1427 -1.57495 0.118822 0.435842
42 1 -11.3214 3.869 13.0307 -1.30937 1.55352 0.607229
40 1 -9.45657 3.71398 12.8772 -0.0278535 0.234305 -0.441804
48 1 -15.0613 3.34032 12.4689 -0.25702 0.459353 0.789464
21 1 -4.28568 2.70244 10.5359 0.252451 0.0830224 1.29249
49 1 -15.5975 2.85283 13.1158 -0.3613 0.0513898 -0.0780229
37 1 -8.29966 3.54494 11.3206 0.889068 -0.270308 2.16362
38 1 -8.37045 3.45456 12.2921 0.653344 -0.879423 0.225009
9 1 -0.493422 -0.567043 10.4101 -0.846656 -1.74298 -1.35564
47 1 -14.3222 3.27454 13.086 0.040623 -0.913778 -0.216964
27 1 -5.20384 2.71923 14.1678 0.640384 -0.714939 -1.27884
24 1 -4.44724 3.0942 12.2905 1.21025 0.369347 -0.222323
23 1 -4.23182 3.53865 11.5276 -1.48102 -1.22402 0.530212
22 1 -3.53716 3.18138 10.9645 -0.751732 -0.294445 0.600002
43 1 -11.9942 3.26305 12.8556 -0.874157 0.0661628 -1.93972
28 1 -5.93886 2.05413 14.4767 0.192454 1.50842 -1.05162
50 1 -15.8441 2.74467 12.1639 -1.13254 -0.33671 -0.143271
36 1 -7.75438 2.78976 11.0004 1.3389 -1.61748 1.57101
31 1 -6.54356 3.10321 12.6404 -0.594408 -0.494155 -0.0318343
46 1 -13.4724 3.65968 13.2807 -0.367073 -0.0355375 1.37369
45 1 -13.1728 4.575 13.335 0.467164 0.241904 0.595093
44 1 -12.506 4.12614 12.7308 -0.25176 0.582382 0.266741
25 1 -5.12966 3.07428 13.0212 -0.740751 1.56974 -0.621785
29 1 -6.55971 1.6818 13.7969 -0.243388 -0.958959 0.28678
26 1 -4.41013 2.96273 13.5713 -0.430559 -0.637986 0.140403
30 1 -6.53848 2.29251 13.0754 1.07634 0.586091 -0.734092
35 1 -7.56712 1.87589 11.2872 -0.558131 -0.418531 -0.834682
32 1 -6.12466 2.86636 11.8224 0.284653 -1.02801 -0.838617
34 1 -6.68893 1.73788 11.4493 -0.831903 0.0376539 1.14302
33 1 -6.7945 2.6475 11.1561 -0.274735 -0.3711 -1.40024
ITEM: TIMESTEP
30000
ITEM: NUMBER OF ATOMS
100
ITEM: BOX BOUNDS pp pp pp
-4.8359586999999998e+01 5.1640413000000002e+01
-4.8810423999999998e+01 5.1189576000000002e+01
-4.6257793999999997e+01 5.3742206000000003e+01
ITEM: ATOMS id type xu yu zu vx vy vz
81 1 4.19799 -2.41913 4.69064 -1.48862 0.0110631 1.51571
83 1 4.04017 -1.08789 3.72727 0.175192 -3.15126 0.545019
80 1 4.38139 -2.81346 3.89209 -1.48231 1.184 1.29094
84 1 3.97815 -0.0960716 3.7424 0.279822 -0.822269 -0.00148248
82 1 3.78189 -1.62045 4.44869 -1.61237 0.347756 0.910494
85 1 4.71405 0.334819 3.23957 0.391333 1.43383 -1.00205
79 1 3.919 -3.59618 3.98137 -0.775721 -1.05575 0.476553
86 1 4.70153 1.12116 2.65464 -1.12061 -0.609208 0.481252
100 1 8.97158 6.88553 6.43441 -0.219095 -0.00408129 0.0752006
92 1 5.48258 4.52488 5.05942 -1.15703 -0.761061 0.341142
93 1 6.21788 4.0323 5.56206 0.917303 -0.0272426 -1.03012
76 1 2.67691 -4.79597 5.8271 -0.285368 -0.139817 -0.710604
77 1 3.28873 -4.41763 5.17177 -0.964634 -0.716527 -0.574404
78 1 3.58816 -4.44898 4.28879 -0.905366 0.21768 -2.49303
87 1 4.7524 1.94143 3.24785 0.219393 -0.535403 2.33093
90 1 4.70453 3.06045 4.12202 0.156115 1.15041 0.433595
91 1 5.03163 3.84473 4.53309 1.0302 -0.0768954 -2.23127
97 1 7.83748 5.88486 5.80102 0.93649 0.591212 0.579744
99 1 8.71961 6.64589 5.52769 -0.465 1.37667 0.386197
96 1 7.49216 5.26772 6.37368 -0.147642 0.470679 -0.34228
94 1 7.17521 3.92457 5.84001 1.46735 0.649411 -0.306567
95 1 7.55333 4.32773 6.58297 -1.46377 0.0971085 -0.767271
73 1 4.02675 -5.19312 7.0371 0.795949 -0.56265 -0.222771
74 1 3.08279 -5.31519 6.9191 0.231055 0.407507 0.0208248
75 1 2.39505 -4.68919 6.79026 1.99625 -0.287469 -0.300102
88 1 3.97903 1.88653 3.78237 -0.214744 0.762908 -0.907407
89 1 3.95611 2.80439 3.51524 0.0799542 0.415738 0.49796
98 1 7.79427 6.45702 5.02895 -1.44406 -0.168143 1.58896
52 1 -1.04968 1.12104 7.38359 0.132338 -1.24993 -0.229085
72 1 4.70178 -4.62757 6.72294 0.17378 1.19118 0.678358
64 1 4.37557 -1.33952 8.05283 -0.805132 1.50613 1.1847
56 1 0.323568 2.55937 7.68908 -1.5407 -0.0311485 -0.986579
10 1 -4.13916 4.90131 10.0895 -0.486174 1.24946 0.494847
53 1 -1.76832 1.26361 8.04477 -0.21873 0.353381 0.592505
51 1 -1.47571 1.40655 6.51893 -0.404911 -0.99285 -0.0676725
65 1 5.14418 -1.32725 7.5166 1.41664 0.0670518 -0.937928
60 1 2.15358 -0.171052 7.57333 -0.537988 0.159747 -1.22526
61 1 3.04079 -0.582763 7.67792 0.806352 -0.862377 -0.150561
63 1 4.44904 -0.550622 7.52781 -0.428211 -0.0345522 -0.124035
62 1 3.76616 0.067169 7.55659 1.1106 -1.16724 -0.463223
57 1 0.896596 1.9393 7.23626 0.185016 -0.500239 2.09402
55 1 -0.185467 1.88108 8.02086 -2.17982 0.704608 -0.405331
54 1 -1.15222 2.04621 7.96264 -0.0663884 -0.644855 0.935618
11 1 -4.02462 4.81113 11.0666 1.58387 -1.42506 0.674734
12 1 -4.08852 5.16525 11.9757 0.81206 -0.505363 1.12411
9 1 -3.75016 4.659 9.19647 -1.20082 1.20017 -1.1764
2 1 -2.54592 2.37956 6.34836 0.361817 0.338482 0.840079
1 1 -1.60675 2.32238 6.32708 -0.229154 -0.236356 0.166627
70 1 4.47936 -2.88278 7.66421 -0.329945 0.779126 0.968263
71 1 4.63199 -3.80987 7.32833 -0.264211 -0.409653 0.721798
66 1 5.9781 -1.54721 7.80953 0.223364 -0.94098 1.74252
59 1 1.74775 0.74439 7.66233 -0.451729 0.00351905 1.21013
58 1 1.82991 1.51241 6.95963 2.41003 1.17505 -1.0283
6 1 -4.50759 2.89446 7.35791 -1.58727 -1.11216 -0.228758
7 1 -4.04308 3.49228 7.93931 -0.798901 1.40343 0.0286378
8 1 -3.5075 4.12351 8.40251 0.301067 1.38114 0.337417
3 1 -2.89147 1.47407 6.21343 0.515209 -1.29796 0.657924
69 1 5.42372 -3.13903 8.0031 -0.38295 -2.09096 -0.0585718
68 1 6.03429 -3.0932 7.22169 0.0968889 1.68844 -2.15813
67 1 6.32226 -2.4766 7.90141 0.710987 0.253067 0.322205
5 1 -3.55191 2.81631 7.04889 0.705782 0.23801 -0.815159
4 1 -3.60477 2.02236 6.48601 -0.838178 -1.81933 2.3782
13 1 -4.81533 5.52759 11.5105 1.79805 -0.261007 -1.4891
14 1 -5.60678 5.21793 11.0761 0.301515 -0.109894 0.767171
15 1 -6.3315 5.58733 11.5287 -1.24688 -2.5629 0.00867213
17 1 -7.69415 4.50582 12.0372 1.07667 1.08979 0.652049
16 1 -7.24668 5.25638 11.5077 -2.16984 -0.527488 2.67657
20 1 -8.79476 3.50605 12.594 -0.686775 -0.273426 -1.33255
19 1 -7.80575 3.54692 12.6433 -0.457162 0.418732 1.47682
18 1 -7.02245 3.85545 12.1518 -0.0322807 0.924969 -0.219731
24 1 -8.71633 2.87344 10.6931 0.459819 -2.24642 0.469512
23 1 -8.16729 3.56537 11.0281 1.10551 -0.340187 -0.772153
22 1 -8.3275 2.92077 11.7539 -0.772738 0.209431 -1.28684
21 1 -9.17749 3.43703 11.7043 0.356709 1.12204 0.846933
27 1 -7.53543 1.06454 9.96097 -0.562396 -0.691586 -0.559596
26 1 -7.77219 1.9203 10.3222 0.184866 0.346167 0.752797
25 1 -8.39937 2.08643 11.1484 1.61229 0.330504 -0.474622
28 1 -8.50305 1.15193 9.79893 0.319314 1.4124 -0.268099
29 1 -8.29106 0.84193 10.7064 -0.0837299 1.28982 0.731749
30 1 -7.87083 -0.0770602 10.8273 -0.409468 -0.132792 -0.57527
33 1 -8.31646 0.494306 12.9243 0.284932 0.658824 -0.12919
32 1 -7.6091 0.320854 12.3087 1.28909 0.748756 -0.493933
31 1 -8.18305 -0.18236 11.7297 -0.0446673 0.519246 -0.832629
34 1 -9.05997 0.677232 13.4704 -0.492545 1.11784 -0.655649
35 1 -9.00216 -0.245618 13.7854 0.541669 -0.676454 0.360233
37 1 -10.351 -1.17939 13.6712 -0.439269 -0.378277 -0.47921
38 1 -11.2055 -1.28735 14.1151 0.577355 -0.838584 1.51894
45 1 -15.2272 -0.567483 15.7735 -0.460314 -0.434214 -0.845866
36 1 -9.95977 -0.344179 13.6115 0.048715 0.320767 -2.31648
44 1 -14.3272 -0.319446 15.6013 -0.0935555 0.16938 -0.911915
40 1 -12.6109 -2.30845 14.7498 0.0350928 -0.488021 -0.801592
39 1 -11.8745 -1.8827 14.4167 -0.223659 -0.455391 -2.61658
47 1 -15.1438 0.0369349 17.1854 -1.32535 -0.0529972 -0.741216
46 1 -14.6882 -0.460445 16.5401 1.36574 -1.00968 -0.0598556
43 1 -13.5041 -0.490914 15.2299 1.51841 -1.27083 0.270384
41 1 -12.8824 -1.56614 15.3217 -0.401778 0.635268 1.32963
48 1 -15.9638 -0.405941 17.0833 0.260996 0.360124 -0.146187
50 1 -15.6913 -2.02976 16.8055 0.705926 1.35647 -1.14303
42 1 -13.6248 -1.18254 15.8601 -0.000619253 0.0254637 1.45207
49 1 -16.2522 -1.25665 16.7654 0.452224 1.00914 0.719774
ITEM: TIMESTEP
40000
ITEM: NUMBER OF ATOMS
100
ITEM: BOX BOUNDS pp pp pp
-4.8359586999999998e+01 5.1640413000000002e+01
-4.8810423999999998e+01 5.1189576000000002e+01
-4.6257793999999997e+01 5.3742206000000003e+01
ITEM: ATOMS id type xu yu zu vx vy vz
95 1 1.57252 -2.46435 4.9965 0.371574 -0.505808 0.19169
100 1 1.84606 -0.633977 3.00376 -0.631426 -0.457417 -0.0820454
98 1 2.7348 -1.52185 3.8319 -1.33913 -0.117727 -0.311778
99 1 2.63272 -0.580264 3.54966 -1.82287 -0.195874 -1.07756
96 1 2.06548 -2.71522 4.2079 1.11781 0.196839 0.97867
94 1 0.626775 -2.79477 4.82164 -0.230694 0.326659 0.292857
97 1 1.91569 -1.69824 4.23396 0.98898 -0.806555 0.92422
92 1 1.24332 -4.28242 4.48876 0.327317 0.51965 -2.89841
93 1 0.722121 -3.51912 4.09487 -1.15464 -0.769385 0.851904
91 1 0.390775 -4.68398 4.30783 1.28936 -0.867103 0.799206
44 1 -7.75436 6.86526 9.26284 0.0214821 1.14829 1.38941
45 1 -8.66778 6.71481 9.01048 0.537035 -0.603474 1.7202
88 1 -1.10285 -3.45862 4.94558 0.512248 -1.13589 0.235802
89 1 -0.556799 -3.32631 4.1763 0.786245 0.131652 -2.21349
90 1 -0.291889 -4.1733 3.77915 2.81498 -1.59821 -0.250856
43 1 -7.19457 6.36929 8.63022 -0.77389 1.06818 -0.0268147
37 1 -8.42952 4.0417 11.3685 0.919995 -0.396223 -1.48904
41 1 -7.84759 5.51025 9.22364 0.996063 -0.869582 0.594324
38 1 -8.44073 4.96028 10.9335 -1.14534 0.802953 0.328523
47 1 -9.85356 6.6083 8.35958 -0.312224 -0.338474 -0.310513
46 1 -9.50008 7.22187 8.99193 -0.0311128 -0.898487 -0.386482
87 1 -2.03201 -3.33513 4.9079 0.452908 -0.762109 -1.03496
36 1 -7.8778 3.50034 10.8912 -1.04591 -0.692438 0.23575
42 1 -7.45397 5.51718 8.31255 -0.683144 -0.441942 0.998521
40 1 -7.83178 4.43813 9.19193 1.56095 1.1862 -0.30964
39 1 -8.30069 4.66628 10.0029 -1.37351 -0.77948 1.76855
85 1 -1.96626 -2.41578 6.6167 -0.922329 0.365493 -0.944495
86 1 -2.10103 -3.01633 5.93933 -0.932911 -0.549204 0.880232
79 1 -3.82024 -0.127552 9.88303 1.91516 0.315383 0.766183
48 1 -9.93431 6.73733 7.40704 2.13396 0.545117 -1.40201
84 1 -2.68644 -2.19669 7.20895 1.16283 1.8778 -2.19608
81 1 -2.83542 -0.731458 8.57205 1.03627 -1.51955 0.811372
80 1 -3.38816 -0.712444 9.28473 1.65403 0.263405 0.93537
78 1 -3.45452 0.151326 10.7152 -0.614366 1.00122 -0.124361
77 1 -4.15994 0.18235 11.349 1.11723 0.676674 -0.567327
35 1 -7.05656 3.09502 10.5101 -0.582878 -1.31872 -0.921245
49 1 -9.11177 6.40553 7.0317 0.172231 -0.0598105 1.03824
83 1 -2.75822 -1.75754 8.03169 -0.164035 0.648463 -0.79764
82 1 -2.37091 -1.55676 8.85955 -0.495913 0.658949 0.0723623
4 1 -0.985614 -0.414259 11.0479 -0.916409 0.9351 -0.500599
76 1 -4.15694 0.934578 11.9268 -0.753959 0.238111 0.897239
34 1 -7.07693 3.29428 9.56477 -1.50858 1.92295 0.644141
50 1 -8.85311 7.07284 6.46982 -0.405215 1.99477 -0.196325
75 1 -3.24844 0.932915 12.158 -0.387647 -2.0256 2.44227
73 1 -3.7232 2.38489 12.9982 -1.35789 0.788172 0.635771
31 1 -6.84824 1.43962 9.66648 -0.306896 2.3253 0.201693
33 1 -6.50292 2.56829 9.841 0.0973784 -0.759931 -1.13841
9 1 -0.76814 -2.6206 11.2072 -0.265542 1.22881 0.371089
10 1 -1.59855 -2.6796 10.7364 1.57979 0.712415 0.614577
7 1 -0.263875 -1.69313 10.7768 0.24709 -0.763439 0.934519
5 1 -0.244 -0.681228 10.3962 0.678334 -0.503204 -0.341586
2 1 -0.716811 1.16248 11.2074 0.839633 0.312044 0.0354299
3 1 -0.960211 0.383074 10.5419 0.355874 -0.448263 -0.575431
52 1 0.954704 1.52678 12.3837 -2.8432 0.817399 0.663731
72 1 -3.54776 3.32282 12.5442 0.813719 -0.242967 1.37055
32 1 -6.0136 1.737 9.99666 -0.718757 -0.880322 -0.0815778
74 1 -3.17431 1.87674 12.3723 0.0706033 -1.07051 -0.74495
11 1 -1.84772 -2.38834 11.6288 2.07123 -0.543534 0.018795
21 1 -4.65664 -1.84843 11.8947 -0.213226 0.325919 -0.735878
8 1 -0.505275 -1.84572 11.6877 0.788199 -1.82432 -0.618253
6 1 0.544261 -1.12899 10.9271 -0.0736139 0.69605 -2.11765
27 1 -7.60941 0.376191 11.2749 0.42711 0.263018 1.34764
22 1 -4.91193 -0.950214 11.6118 0.729109 0.212431 1.11978
1 1 -0.713862 1.19843 12.1543 0.172068 0.761438 0.392606
28 1 -7.53823 1.25811 10.8772 -2.66985 -0.791191 -0.481783
51 1 0.21053 1.11427 11.9567 -1.34089 -0.0388608 -0.122182
71 1 -3.59313 4.25102 12.4766 -1.55312 -0.31956 -0.643001
53 1 1.69518 0.907207 12.208 0.0970187 0.496037 -1.25578
29 1 -7.89512 1.1275 10.0202 -0.436207 -0.181061 -1.98115
70 1 -3.93059 4.39974 13.443 0.545081 0.0249274 -0.443193
30 1 -7.15425 0.523101 9.77931 -0.508338 1.01342 0.765454
68 1 -4.61583 4.68859 14.1823 1.41306 0.866388 0.0472439
65 1 -3.04712 4.04144 15.2976 -0.294485 -0.282257 1.20696
12 1 -2.41698 -2.28008 12.3967 1.9775 -0.912821 1.7286
26 1 -8.13895 0.0132292 11.9766 -0.766262 -0.365166 -0.146991
20 1 -4.60206 -1.83188 12.8719 -1.33624 -0.792695 -0.1506
24 1 -6.62671 -1.09618 12.3206 1.70906 -0.714687 -1.28707
23 1 -5.81148 -0.942521 11.8493 -0.352635 -0.705707 0.298382
59 1 1.10153 3.62 12.9808 0.160476 -0.000708639 1.2394
54 1 1.91302 1.79955 12.6193 -1.6258 -2.10734 0.316775
69 1 -3.71761 4.71432 14.299 0.495888 -0.320411 -0.129987
60 1 0.273636 4.03772 13.3114 -0.246449 0.931553 0.0183208
61 1 -0.178008 4.10354 14.271 0.11411 1.5265 0.142846
67 1 -4.46853 4.14181 14.9661 1.15807 0.401643 -0.0467742
64 1 -2.59178 3.75442 14.5067 -0.598407 -1.38212 -0.40167
66 1 -3.94583 4.05155 15.7338 -0.620143 -0.379478 -0.426614
13 1 -2.89938 -3.01703 11.9707 -1.1337 0.248066 -0.280074
15 1 -2.83406 -3.82946 12.9526 -1.22355 0.936151 0.894897
14 1 -2.1748 -3.64659 12.2532 -1.65862 1.71711 -0.977617
19 1 -4.69005 -1.49384 13.7552 -0.961985 0.899256 0.444911
16 1 -3.62855 -3.2864 12.9608 -1.93389 -1.64681 -0.141068
25 1 -7.44685 -0.600544 12.1832 -0.0759617 0.218628 0.0275117
18 1 -4.68229 -2.37749 14.1921 2.35121 -0.75824 0.175784
17 1 -3.96749 -3.00586 13.8451 -1.08569 -1.22529 0.0781563
55 1 2.62166 2.49927 12.8428 0.986073 -1.14858 0.683229
62 1 -0.836949 3.92686 14.9935 2.65081 0.00223227 1.17393
57 1 2.37285 2.90784 13.7646 -0.663969 0.858033 -0.265769
58 1 1.55629 3.42609 13.7654 1.41421 0.144088 -0.448459