LAMMPS (23 Jun 2022 - Update 1)
OMP_NUM_THREADS environment is not set. Defaulting to 1 thread. (src/comm.cpp:98)
  using 1 OpenMP thread(s) per MPI task


variable        runtime equal 1000000
variable		subsample_rate equal 1000

variable		outputfile_created string '3_created.data'
variable		outputfile_relaxed string '5_relaxed.data'
variable		outputfile_selfasb string '6_a_self_assemble.lammpstrj'
variable		outputfile_trajlin string '6_b_trajlin.data'
variable		outputfile_assembled string '7_assembled.data'

units           lj
atom_style      full
dimension       3
boundary        p p p
timestep        0.005

read_data       ${outputfile_created}
read_data       3_created.data
Reading data file ...
  orthogonal box = (0 0 0) to (35 35 35)
  1 by 1 by 1 MPI processor grid
  reading atoms ...
  100 atoms
  reading velocities ...
  100 velocities
  scanning bonds ...
  1 = max bonds/atom
  reading bonds ...
  99 bonds
Finding 1-2 1-3 1-4 neighbors ...
  special bond factors lj:    0        0        0       
  special bond factors coul:  0        0        0       
     2 = max # of 1-2 neighbors
     2 = max # of 1-3 neighbors
     4 = max # of 1-4 neighbors
     6 = max # of special neighbors
  special bonds CPU = 0.000 seconds
  read_data CPU = 0.006 seconds

bond_style      fene
bond_coeff      * 30.0 1.5 1.0 1.0
special_bonds   fene
Finding 1-2 1-3 1-4 neighbors ...
  special bond factors lj:    0        1        1       
  special bond factors coul:  0        1        1       
     2 = max # of 1-2 neighbors
     6 = max # of special neighbors
  special bonds CPU = 0.000 seconds

variable        Temp equal 1.0
variable        velSeed equal 926458

velocity        all create ${Temp} ${velSeed}
velocity        all create 1 ${velSeed}
velocity        all create 1 926458

### Output
thermo_style    custom step temp density press etotal pe ke epair spcpu
thermo          1000

###########################################################################
# Soft relaxation (to remove overlaps of particles)
######################################################################

pair_style      soft 1.0
pair_coeff      * * 0.0
variable        prefactor equal ramp(0,300)
fix             rampSoft all adapt 1 pair soft a * * v_prefactor

minimize        0.0 1.0e-8 1000 100000
WARNING: Using 'neigh_modify every 1 delay 0 check yes' setting during minimization (src/min.cpp:187)
Generated 0 of 6 mixed pair_coeff terms from geometric mixing rule
Neighbor list info ...
  update every 1 steps, delay 0 steps, check yes
  max neighbors/atom: 2000, page size: 100000
  master list distance cutoff = 1.3
  ghost atom cutoff = 1.3
  binsize = 0.65, bins = 54 54 54
  1 neighbor lists, perpetual/occasional/extra = 1 0 0
  (1) pair soft, perpetual
      attributes: half, newton on
      pair build: half/bin/newton
      stencil: half/bin/3d
      bin: standard
WARNING: Communication cutoff 1.3 is shorter than a bond length based estimate of 1.7550000000000001. This may lead to errors. (src/comm.cpp:727)
Per MPI rank memory allocation (min/avg/max) = 8.346 | 8.346 | 8.346 Mbytes
   Step          Temp         Density         Press          TotEng         PotEng         KinEng         E_pair         S/CPU     
         0   1              0.0023323615  -0.0039617958   21.524174      20.039174      1.485          0              0            
       362   1              0.0023323615   0.0023090379   21.485548      20.000548      1.485          0              66527.009    
Loop time of 0.00544411 on 1 procs for 362 steps with 100 atoms

99.2% CPU use with 1 MPI tasks x 1 OpenMP threads

Minimization stats:
  Stopping criterion = force tolerance
  Energy initial, next-to-last, final = 
      20.0391741078675   20.0005480767337   20.0005480767337
  Force two-norm initial, final = 11.878422 7.9509778e-09
  Force max component initial, final = 6.6117807 1.3572772e-09
  Final line search alpha, max atom move = 1 1.3572772e-09
  Iterations, force evaluations = 362 738

MPI task timing breakdown:
Section |  min time  |  avg time  |  max time  |%varavg| %total
---------------------------------------------------------------
Pair    | 0.00021355 | 0.00021355 | 0.00021355 |   0.0 |  3.92
Bond    | 0.0023483  | 0.0023483  | 0.0023483  |   0.0 | 43.13
Neigh   | 0.0016816  | 0.0016816  | 0.0016816  |   0.0 | 30.89
Comm    | 0.00018807 | 0.00018807 | 0.00018807 |   0.0 |  3.45
Output  | 0          | 0          | 0          |   0.0 |  0.00
Modify  | 0          | 0          | 0          |   0.0 |  0.00
Other   |            | 0.001013   |            |       | 18.60

Nlocal:            100 ave         100 max         100 min
Histogram: 1 0 0 0 0 0 0 0 0 0
Nghost:             20 ave          20 max          20 min
Histogram: 1 0 0 0 0 0 0 0 0 0
Neighs:              0 ave           0 max           0 min
Histogram: 1 0 0 0 0 0 0 0 0 0

Total # of neighbors = 0
Ave neighs/atom = 0
Ave special neighs/atom = 1.98
Neighbor list builds = 17
Dangerous builds = 0

fix             nvtSoft all nvt temp ${Temp} ${Temp} 0.5
fix             nvtSoft all nvt temp 1 ${Temp} 0.5
fix             nvtSoft all nvt temp 1 1 0.5
run             100000
Generated 0 of 6 mixed pair_coeff terms from geometric mixing rule
WARNING: Communication cutoff 1.3 is shorter than a bond length based estimate of 1.7550000000000001. This may lead to errors. (src/comm.cpp:727)
Per MPI rank memory allocation (min/avg/max) = 7.221 | 7.221 | 7.221 Mbytes
   Step          Temp         Density         Press          TotEng         PotEng         KinEng         E_pair         S/CPU     
       362   1              0.0023323615   0.0023090379   21.485548      20.000548      1.485          0              0            
      1000   0.90989032     0.0023323615  -0.0021940042   21.776974      20.425787      1.3511871      0.00036425437  77044.003    
      2000   0.86546688     0.0023323615   0.0034714157   21.677128      20.39191       1.2852183      0.0025814786   75607.1      
      3000   0.98199538     0.0023323615   0.0028144228   21.866132      20.407869      1.4582631      0.0011756043   74427.384    
      4000   1.004495       0.0023323615  -0.0014058211   21.945624      20.453949      1.4916751      0.011986179    74583.446    
      5000   1.1222705      0.0023323615   0.0044495116   21.986385      20.319813      1.6665718      0.0050317639   74554.414    
      6000   1.0538243      0.0023323615   0.0023957538   21.985713      20.420784      1.564929       0.012100514    75546.15     
      7000   1.0210598      0.0023323615  -0.00038820026  21.904665      20.388391      1.5162738      0              76848.345    
      8000   0.94819751     0.0023323615   0.0024943091   21.747889      20.339816      1.4080733      0              76999.698    
      9000   0.92364502     0.0023323615   0.0020053029   21.724166      20.352554      1.3716129      1.7780894e-05  74295.977    
     10000   0.86685188     0.0023323615   0.00078277366  21.644879      20.357604      1.287275       0.0098636418   76263.87     
     11000   1.0057103      0.0023323615   0.00010113276  21.8558        20.362321      1.4934798      0.020705341    75937.732    
     12000   0.97901664     0.0023323615  -0.0026996968   21.871206      20.417366      1.4538397      0.0052928539   75993.351    
     13000   0.97718436     0.0023323615  -6.1641422e-06  21.963706      20.512587      1.4511188      0.025022446    76009.316    
     14000   1.0530014      0.0023323615  -0.0009993112   21.947994      20.384287      1.5637071      0.0020860456   75320.511    
     15000   0.99094527     0.0023323615   0.0011068478   21.895146      20.423592      1.4715537      0.0015091113   76324.814    
     16000   0.91285091     0.0023323615  -0.00025424173  21.87524       20.519657      1.3555836      0.0047853639   75839.643    
     17000   0.82806978     0.0023323615  -0.00054698156  21.701984      20.472301      1.2296836      0              73694.77     
     18000   1.043278       0.0023323615  -6.6143919e-05  22.003299      20.454031      1.5492679      0.0034319132   77034.22     
     19000   1.0879249      0.0023323615  -0.0017804642   21.998985      20.383416      1.6155685      0.015376175    75454.147    
     20000   1.1144506      0.0023323615   0.0025198298   22.190904      20.535944      1.6549592      0              76655.173    
     21000   1.0427751      0.0023323615   0.0011345349   22.099492      20.550971      1.548521       0.00040047813  76758.866    
     22000   1.0586695      0.0023323615   0.0017882747   22.05673       20.484606      1.5721242      0              76584.597    
     23000   1.0058426      0.0023323615  -0.0055245362   21.954628      20.460951      1.4936763      0.0027619031   75660.799    
     24000   0.98273442     0.0023323615   0.0015147357   21.862067      20.402707      1.4593606      0              76040.649    
     25000   0.95835343     0.0023323615   0.0017808774   21.937761      20.514606      1.4231548      0.00020839942  73779.856    
     26000   0.93993778     0.0023323615  -0.0021777292   21.884849      20.489042      1.3958076      0.0088889834   76270.338    
     27000   0.9308188      0.0023323615  -0.00011239942  21.842252      20.459986      1.3822659      0.021612409    75344.165    
     28000   1.0149581      0.0023323615   0.0041996387   21.906846      20.399633      1.5072129      0.0064059022   76002.725    
     29000   0.92841138     0.0023323615  -2.5398808e-05  21.987185      20.608494      1.3786909      0.0046112484   75907.585    
     30000   1.021043       0.0023323615   0.001589158    22.097958      20.581709      1.5162489      0.016799508    72636.179    
     31000   1.0465985      0.0023323615  -0.0021744286   22.037917      20.483718      1.5541987      0.0057879149   76226.246    
     32000   0.98907108     0.0023323615  -0.0015558606   22.044089      20.575318      1.4687705      0.009448173    75954.199    
     33000   1.0918536      0.0023323615  -0.0025643847   22.039275      20.417873      1.6214025      0              72795.897    
     34000   0.99801543     0.0023323615   0.0016279766   21.932339      20.450286      1.4820529      0.017384617    77462.22     
     35000   1.0352271      0.0023323615  -0.0052971711   22.076004      20.538692      1.5373122      0.00010473809  75872.557    
     36000   1.1141579      0.0023323615  -0.00093279925  22.222491      20.567966      1.6545245      0.00033678641  77042.131    
     37000   1.0369415      0.0023323615   0.00013065175  22.217841      20.677983      1.5398581      0.013788831    76089.632    
     38000   1.0515596      0.0023323615   0.0021717558   22.070766      20.5092        1.561566       0.0067894678   76628.693    
     39000   1.0238495      0.0023323615   0.00026414509  22.040141      20.519725      1.5204165      0.00044464649  75619.639    
     40000   1.0749111      0.0023323615  -0.0026849368   22.039327      20.443084      1.596243       0.012651334    73048.479    
     41000   0.99070886     0.0023323615  -0.0030385564   22.03241       20.561207      1.4712027      0.00092855646  76562.333    
     42000   0.95315224     0.0023323615   0.0019788197   21.965263      20.549832      1.4154311      0.020233689    75857.685    
     43000   1.0644183      0.0023323615  -0.0011168725   22.287172      20.706511      1.5806611      0.039694129    75575.205    
     44000   1.0253747      0.0023323615  -0.006676522    22.066233      20.543552      1.5226814      0              75140.541    
     45000   0.94179556     0.0023323615  -0.0047206018   21.970644      20.572077      1.3985664      0.019869988    75275.408    
     46000   1.0083495      0.0023323615  -0.0017646918   21.972114      20.474715      1.497399       0.00026040605  75513.684    
     47000   0.98767959     0.0023323615  -0.00080218158  22.091674      20.62497       1.4667042      0.024266258    75308.18     
     48000   1.1473449      0.0023323615  -0.0025885687   22.080512      20.376705      1.7038072      0.00065962995  74687.636    
     49000   1.0679312      0.0023323615   0.0017688272   21.970482      20.384604      1.5858779      0.014142422    75736.754    
     50000   0.9581935      0.0023323615   0.0014398836   21.955202      20.532284      1.4229173      0.0055011948   76318.097    
     51000   1.0215759      0.0023323615  -0.00093292688  21.934681      20.41764       1.5170402      0              75875.505    
     52000   0.98079591     0.0023323615   0.0040701936   21.977374      20.520892      1.4564819      0.0020862422   76666.415    
     53000   1.0090927      0.0023323615   0.0013324753   22.095438      20.596935      1.4985027      0              76035.497    
     54000   0.97519627     0.0023323615   0.0013260734   22.070151      20.621984      1.4481665      0.026885444    77050.691    
     55000   1.1805087      0.0023323615  -0.001586238    22.424088      20.671033      1.7530554      0.024690954    76593.178    
     56000   0.98387121     0.0023323615   0.0037155145   22.104425      20.643376      1.4610487      0.01435493     76336.018    
     57000   1.0723812      0.0023323615  -0.0037916262   22.122726      20.53024       1.592486       0.013635549    75536.374    
     58000   1.0152349      0.0023323615   0.00021908047  22.082827      20.575203      1.5076238      0.00077375639  76320.666    
     59000   1.1424502      0.0023323615  -0.0052108657   22.30072       20.604182      1.6965385      0.013308184    77350.923    
     60000   1.0359703      0.0023323615  -0.00097887545  22.188218      20.649802      1.538416       0.00011346294  75479.764    
     61000   1.1646839      0.0023323615  -0.002085017    22.239945      20.51039       1.7295556      0.012918477    77888.917    
     62000   1.101836       0.0023323615   0.0010338878   22.171386      20.53516       1.6362265      0.001396566    76721.582    
     63000   0.96616435     0.0023323615   0.00097550571  21.903821      20.469067      1.4347541      0.013027663    77971.421    
     64000   1.0068907      0.0023323615  -0.0020278726   22.061652      20.566419      1.4952327      0.013750276    76574.662    
     65000   0.98723233     0.0023323615   0.0022441476   22.031073      20.565033      1.46604        0.0066686189   77010.988    
     66000   1.0273881      0.0023323615  -0.0003515278   22.183579      20.657908      1.5256713      0              75295.79     
     67000   0.96528212     0.0023323615  -0.00014822656  21.9396        20.506156      1.4334439      0.010365557    76788.042    
     68000   1.069702       0.0023323615   9.4754668e-05  22.081119      20.492611      1.5885075      0.00049153926  73276.935    
     69000   1.1229502      0.0023323615   0.0011504079   22.200329      20.532748      1.6675811      0.0068454249   77145.321    
     70000   1.0062775      0.0023323615  -0.00085311964  22.094021      20.599699      1.4943221      0.013222355    75548.552    
     71000   1.0906935      0.0023323615   0.00015260357  22.145362      20.525682      1.6196798      0.018338513    76031.67     
     72000   1.010401       0.0023323615  -6.0487182e-06  22.154105      20.653659      1.5004455      0.0013793953   75203.095    
     73000   1.1177599      0.0023323615  -0.0034084797   22.254435      20.594562      1.6598735      0.00011231735  77821.387    
     74000   0.9768019      0.0023323615   0.00016143893  22.07312       20.622569      1.4505508      0.0084515956   74541.388    
     75000   1.1360996      0.0023323615   0.002159116    22.161595      20.474487      1.6871079      0.0089909162   76300.075    
     76000   0.97379329     0.0023323615  -0.00068458621  21.988928      20.542845      1.446083       0              73714.799    
     77000   0.94876793     0.0023323615  -0.0016073976   21.923496      20.514575      1.4089204      0.017745108    75282.617    
     78000   0.83947996     0.0023323615  -0.00062768559  21.726727      20.480099      1.2466277      0.0054510099   76510.046    
     79000   1.0090614      0.0023323615  -0.00080262643  22.068192      20.569736      1.4984562      0.00023011166  75958.301    
     80000   1.1217643      0.0023323615  -0.0038177864   22.367902      20.702082      1.66582        0.032902439    75044.719    
     81000   1.0240158      0.0023323615   0.00023547123  22.031597      20.510933      1.5206635      0.0068767308   75899.335    
     82000   1.003236       0.0023323615  -0.0022802982   21.894199      20.404393      1.4898055      0.019136282    75046.245    
     83000   1.0554159      0.0023323615   0.004011718    22.104562      20.537269      1.5672927      0.0080869707   74803.111    
     84000   0.83527346     0.0023323615  -0.0034122221   21.874648      20.634267      1.2403811      0.0030083664   76208.668    
     85000   1.036002       0.0023323615   0.0013573923   21.962923      20.42446       1.5384629      0.015709144    76729.129    
     86000   0.9432002      0.0023323615  -0.0032183248   21.913588      20.512936      1.4006523      0.013730309    76477.858    
     87000   0.95566008     0.0023323615  -0.00049614223  21.91653       20.497375      1.4191552      0.0035862035   74615.055    
     88000   0.93373351     0.0023323615  -0.00097093893  21.870485      20.483891      1.3865943      0.0018212145   75421.817    
     89000   0.9684944      0.0023323615  -0.00047342045  21.973429      20.535215      1.4382142      0.00087524744  74923.608    
     90000   0.98293324     0.0023323615  -0.0032204602   22.050919      20.591263      1.4596559      0.015353933    76989.3      
     91000   1.0832827      0.0023323615   0.0048517083   22.11977       20.511095      1.6086749      0.0052867789   77944.084    
     92000   0.85899662     0.0023323615  -0.0013049519   21.765697      20.490087      1.27561        0.0024124001   76760.757    
     93000   0.96176266     0.0023323615  -4.4223672e-05  21.874222      20.446004      1.4282176      0.0045653365   77505.825    
     94000   0.96019503     0.0023323615   0.00024459347  21.944954      20.519064      1.4258896      3.8053462e-05  76839.529    
     95000   0.94702149     0.0023323615  -0.0033658915   21.86315       20.456823      1.4063269      0              77651.08     
     96000   0.91119348     0.0023323615  -0.0013197298   21.825018      20.471896      1.3531223      0.00043282989  76378.895    
     97000   1.0016687      0.0023323615  -0.0019514304   22.013024      20.525546      1.487478       0.0048369955   75359.353    
     98000   1.02143        0.0023323615  -0.0057874974   22.177965      20.661142      1.5168235      0              73752.383    
     99000   1.032786       0.0023323615   0.0018228259   21.975336      20.441649      1.5336871      7.1595851e-05  77777.118    
    100000   1.0594928      0.0023323615   0.0036169719   22.011024      20.437677      1.5733468      0.00032948157  76273.485    
    100362   1.1904942      0.0023323615  -0.00089755607  22.316856      20.548972      1.7678839      0.00063845255  75753.311    
Loop time of 1.31801 on 1 procs for 100000 steps with 100 atoms

Performance: 32776654.084 tau/day, 75871.884 timesteps/s
98.8% CPU use with 1 MPI tasks x 1 OpenMP threads

MPI task timing breakdown:
Section |  min time  |  avg time  |  max time  |%varavg| %total
---------------------------------------------------------------
Pair    | 0.050014   | 0.050014   | 0.050014   |   0.0 |  3.79
Bond    | 0.12635    | 0.12635    | 0.12635    |   0.0 |  9.59
Neigh   | 0.80521    | 0.80521    | 0.80521    |   0.0 | 61.09
Comm    | 0.055449   | 0.055449   | 0.055449   |   0.0 |  4.21
Output  | 0.0013369  | 0.0013369  | 0.0013369  |   0.0 |  0.10
Modify  | 0.24475    | 0.24475    | 0.24475    |   0.0 | 18.57
Other   |            | 0.0349     |            |       |  2.65

Nlocal:            100 ave         100 max         100 min
Histogram: 1 0 0 0 0 0 0 0 0 0
Nghost:             60 ave          60 max          60 min
Histogram: 1 0 0 0 0 0 0 0 0 0
Neighs:             36 ave          36 max          36 min
Histogram: 1 0 0 0 0 0 0 0 0 0

Total # of neighbors = 36
Ave neighs/atom = 0.36
Ave special neighs/atom = 1.98
Neighbor list builds = 9821
Dangerous builds = 8265
unfix           nvtSoft
unfix           rampSoft
reset_timestep  0

write_data      ${outputfile_relaxed}
write_data      5_relaxed.data
System init for write_data ...
Generated 0 of 6 mixed pair_coeff terms from geometric mixing rule
WARNING: Communication cutoff 1.3 is shorter than a bond length based estimate of 1.7550000000000001. This may lead to errors. (src/comm.cpp:727)
WARNING: Not all mixed pair coeffs generated from mixing. Use write_data with 'pair ij' option to store all pair coeffs. (src/write_data.cpp:309)

###########################################################################
# Full LJ with Coulomb
######################################################################

# Cutoffs and parameters:
# - Values: Marcel Verkade's Bachelor Thesis
# - Mapping to atom groups: Patrick Onck's paper
# - 1: aliphatic, 2: aromatic, 3: anion, 4: cation
# pair_style	lj/cut/coul/cut <lj_cut_global> <coul_cut_global>
# pair_coeff	<type_1>  <type_2>  <eps>  <sigma>  <r_cut_lj>  <r_cut_coul>

# Problem: Onck's model is much more complex, and Marcel has no sigma reported
# Using sigma=1 randomly

variable		glob_ljeps equal 1.0
variable		glob_ljsig 	equal 1.0
variable		glob_coulcut equal 10.0
variable		att_ljcut equal 2.50
variable		rep_ljcut equal 1.12

pair_style		lj/cut/coul/cut 						${att_ljcut} 	${glob_coulcut}
pair_style		lj/cut/coul/cut 						2.5 	${glob_coulcut}
pair_style		lj/cut/coul/cut 						2.5 	10
pair_coeff		1 1 	${glob_ljeps} 	${glob_ljsig}	${att_ljcut} 	${glob_coulcut}
pair_coeff		1 1 	1 	${glob_ljsig}	${att_ljcut} 	${glob_coulcut}
pair_coeff		1 1 	1 	1	${att_ljcut} 	${glob_coulcut}
pair_coeff		1 1 	1 	1	2.5 	${glob_coulcut}
pair_coeff		1 1 	1 	1	2.5 	10
pair_coeff		1 2 	${glob_ljeps} 	${glob_ljsig}	${att_ljcut} 	${glob_coulcut}
pair_coeff		1 2 	1 	${glob_ljsig}	${att_ljcut} 	${glob_coulcut}
pair_coeff		1 2 	1 	1	${att_ljcut} 	${glob_coulcut}
pair_coeff		1 2 	1 	1	2.5 	${glob_coulcut}
pair_coeff		1 2 	1 	1	2.5 	10
pair_coeff		1 3 	${glob_ljeps} 	${glob_ljsig}	${rep_ljcut} 	${glob_coulcut}
pair_coeff		1 3 	1 	${glob_ljsig}	${rep_ljcut} 	${glob_coulcut}
pair_coeff		1 3 	1 	1	${rep_ljcut} 	${glob_coulcut}
pair_coeff		1 3 	1 	1	1.12 	${glob_coulcut}
pair_coeff		1 3 	1 	1	1.12 	10
pair_coeff		1 4 	${glob_ljeps} 	${glob_ljsig}	${rep_ljcut} 	${glob_coulcut}
pair_coeff		1 4 	1 	${glob_ljsig}	${rep_ljcut} 	${glob_coulcut}
pair_coeff		1 4 	1 	1	${rep_ljcut} 	${glob_coulcut}
pair_coeff		1 4 	1 	1	1.12 	${glob_coulcut}
pair_coeff		1 4 	1 	1	1.12 	10
pair_coeff		2 2 	${glob_ljeps} 	${glob_ljsig}	${att_ljcut} 	${glob_coulcut}
pair_coeff		2 2 	1 	${glob_ljsig}	${att_ljcut} 	${glob_coulcut}
pair_coeff		2 2 	1 	1	${att_ljcut} 	${glob_coulcut}
pair_coeff		2 2 	1 	1	2.5 	${glob_coulcut}
pair_coeff		2 2 	1 	1	2.5 	10
pair_coeff		2 3 	${glob_ljeps} 	${glob_ljsig}	${rep_ljcut} 	${glob_coulcut}
pair_coeff		2 3 	1 	${glob_ljsig}	${rep_ljcut} 	${glob_coulcut}
pair_coeff		2 3 	1 	1	${rep_ljcut} 	${glob_coulcut}
pair_coeff		2 3 	1 	1	1.12 	${glob_coulcut}
pair_coeff		2 3 	1 	1	1.12 	10
pair_coeff		2 4 	${glob_ljeps} 	${glob_ljsig}	${att_ljcut} 	${glob_coulcut}
pair_coeff		2 4 	1 	${glob_ljsig}	${att_ljcut} 	${glob_coulcut}
pair_coeff		2 4 	1 	1	${att_ljcut} 	${glob_coulcut}
pair_coeff		2 4 	1 	1	2.5 	${glob_coulcut}
pair_coeff		2 4 	1 	1	2.5 	10
pair_coeff		3 3 	${glob_ljeps} 	${glob_ljsig}	${rep_ljcut} 	${glob_coulcut}
pair_coeff		3 3 	1 	${glob_ljsig}	${rep_ljcut} 	${glob_coulcut}
pair_coeff		3 3 	1 	1	${rep_ljcut} 	${glob_coulcut}
pair_coeff		3 3 	1 	1	1.12 	${glob_coulcut}
pair_coeff		3 3 	1 	1	1.12 	10
pair_coeff		3 4 	${glob_ljeps} 	${glob_ljsig}	${att_ljcut} 	${glob_coulcut}
pair_coeff		3 4 	1 	${glob_ljsig}	${att_ljcut} 	${glob_coulcut}
pair_coeff		3 4 	1 	1	${att_ljcut} 	${glob_coulcut}
pair_coeff		3 4 	1 	1	2.5 	${glob_coulcut}
pair_coeff		3 4 	1 	1	2.5 	10
pair_coeff		4 4 	${glob_ljeps} 	${glob_ljsig}	${rep_ljcut} 	${glob_coulcut}
pair_coeff		4 4 	1 	${glob_ljsig}	${rep_ljcut} 	${glob_coulcut}
pair_coeff		4 4 	1 	1	${rep_ljcut} 	${glob_coulcut}
pair_coeff		4 4 	1 	1	1.12 	${glob_coulcut}
pair_coeff		4 4 	1 	1	1.12 	10


fix             noDriftRot 	all momentum 10 linear 1 1 1 angular
fix             nvt1 		all nvt temp ${Temp} ${Temp} 0.5
fix             nvt1 		all nvt temp 1 ${Temp} 0.5
fix             nvt1 		all nvt temp 1 1 0.5

# dump          assemble 	all custom 1000 				${outputfile_selfasb} id type xu yu zu vx vy vz
dump            lindump 	all custom ${subsample_rate} 	${outputfile_trajlin} id type xu yu zu vx vy vz
dump            lindump 	all custom 1000 	${outputfile_trajlin} id type xu yu zu vx vy vz
dump            lindump 	all custom 1000 	6_b_trajlin.data id type xu yu zu vx vy vz

run             ${runtime}
run             1000000
Generated 0 of 6 mixed pair_coeff terms from geometric mixing rule
Neighbor list info ...
  update every 1 steps, delay 10 steps, check yes
  max neighbors/atom: 2000, page size: 100000
  master list distance cutoff = 10.3
  ghost atom cutoff = 10.3
  binsize = 5.15, bins = 7 7 7
  1 neighbor lists, perpetual/occasional/extra = 1 0 0
  (1) pair lj/cut/coul/cut, perpetual
      attributes: half, newton on
      pair build: half/bin/newton
      stencil: half/bin/3d
      bin: standard
Per MPI rank memory allocation (min/avg/max) = 7.712 | 7.712 | 7.712 Mbytes
   Step          Temp         Density         Press          TotEng         PotEng         KinEng         E_pair         S/CPU     
         0   1.1904942      0.0023323615  -0.0013054663   22.017616      20.249732      1.7678839     -0.29860226     0            
      1000   1.1257938      0.0023323615  -0.00069939231  21.589127      19.917323      1.6718038     -0.65713647     33526.933    
      2000   0.87897988     0.0023323615   0.0029595203   21.08931       19.784025      1.3052851     -0.67902647     30414.341    
      3000   1.0103527      0.0023323615  -0.0037813616   21.247762      19.747389      1.5003737     -0.72741089     25168.848    
      4000   1.0003008      0.0023323615   0.0014255492   20.7293        19.243853      1.4854467     -1.1400442      20364.658    
      5000   1.0367089      0.0023323615   0.0016172878   20.691667      19.152154      1.5395127     -1.3573088      18416.578    
      6000   0.98011631     0.0023323615   0.0071619915   20.384739      18.929266      1.4554727     -1.5942025      18517.647    
      7000   1.0821615      0.0023323615  -0.0039827345   20.850478      19.243468      1.6070098     -1.2783703      18470.219    
      8000   1.0567875      0.0023323615  -0.0022700446   20.889628      19.320299      1.5693295     -1.2111503      18720.992    
      9000   0.95627847     0.0023323615   0.0021520742   20.544346      19.124272      1.4200735     -1.3274621      18833.965    
     10000   0.97631408     0.0023323615  -0.0024910341   20.86583       19.416004      1.4498264     -1.131318       18745.787    
     11000   1.1454143      0.0023323615  -0.00240204     20.706581      19.005641      1.7009402     -1.4459677      18598.332    
     12000   0.99383369     0.0023323615  -0.00022619589  20.894718      19.418875      1.475843      -1.2437424      18531.602    
     13000   0.99832581     0.0023323615   0.00068290967  20.826344      19.34383       1.4825138     -1.1164345      18721.687    
     14000   1.1407615      0.0023323615   0.0041167707   20.702876      19.008846      1.6940308     -1.4143242      18583.103    
     15000   1.0170514      0.0023323615   0.004401083    20.818522      19.308201      1.5103213     -1.1626392      18712.242    
     16000   0.97792387     0.0023323615  -0.001398586    20.567296      19.115079      1.4522169     -1.4095142      18556.249    
     17000   1.015742       0.0023323615   0.00032519626  20.49485       18.986473      1.5083769     -1.5112248      18308.347    
     18000   0.9944996      0.0023323615   0.00223952     20.56225       19.085418      1.4768319     -1.3307553      18524.063    
     19000   0.98211658     0.0023323615   0.00015465014  20.854465      19.396022      1.4584431     -1.1654066      18930.596    
     20000   1.0602392      0.0023323615   0.00074498046  20.756819      19.182364      1.5744553     -1.1926868      18820.161    
     21000   0.94632442     0.0023323615  -7.1284612e-05  20.975336      19.570044      1.4052918     -1.0207868      18698.935    
     22000   1.0015426      0.0023323615   0.00059089256  20.546362      19.059071      1.4872907     -1.4644949      18569.869    
     23000   1.0437181      0.0023323615  -0.003864439    20.840544      19.290622      1.5499213     -1.2903908      18606.06     
     24000   0.99594931     0.0023323615   0.0005351805   20.905773      19.426788      1.4789847     -1.2265945      18625.249    
     25000   1.0440858      0.0023323615   0.0011307747   20.847925      19.297458      1.5504674     -1.3676578      18651.352    
     26000   0.92895828     0.0023323615   0.0051325338   20.622151      19.242647      1.379503      -1.3529114      18463.894    
     27000   0.94159347     0.0023323615   0.00332181     20.464177      19.065911      1.3982663     -1.3599757      18500.667    
     28000   1.2003398      0.0023323615   0.00049973973  20.80744       19.024936      1.7825046     -1.5010937      18460.906    
     29000   1.1273762      0.0023323615   0.00090576875  20.848287      19.174134      1.6741537     -1.3867504      18620.242    
     30000   1.14987        0.0023323615   0.00021574868  20.931578      19.224021      1.7075569     -1.2589691      18549.176    
     31000   0.9808687      0.0023323615   0.00025932478  20.770309      19.313719      1.45659       -1.2026012      18656.281    
     32000   1.0370462      0.0023323615   0.0069812366   20.751168      19.211154      1.5400136     -1.3728817      18792.109    
     33000   1.0712875      0.0023323615  -0.0031502479   20.476612      18.885751      1.5908619     -1.4804241      18419.813    
     34000   0.93774697     0.0023323615   0.0011576734   20.30485       18.912296      1.3925542     -1.5466209      18373.902    
     35000   1.0745431      0.0023323615   0.00018299015  20.766572      19.170876      1.5956966     -1.4193205      18293.673    
     36000   0.93124996     0.0023323615  -0.00060165252  20.570126      19.18722       1.3829062     -1.2857912      18570.539    
     37000   0.9301292      0.0023323615  -0.0024658282   20.727847      19.346605      1.3812419     -1.2532414      18577.642    
     38000   1.0726358      0.0023323615   0.0014915007   20.442476      18.849612      1.5928641     -1.6472202      18469.771    
     39000   1.0347796      0.0023323615  -0.00033555795  20.699886      19.163238      1.5366478     -1.407825       18421.842    
     40000   0.95774363     0.0023323615   0.0014363254   20.297127      18.874878      1.4222493     -1.5915669      18590.995    
     41000   0.9778869      0.0023323615  -0.0036421639   20.608415      19.156253      1.452162      -1.4002371      18509.419    
     42000   0.85021309     0.0023323615  -0.0013491401   20.266019      19.003452      1.2625664     -1.4884315      18233.967    
     43000   0.97472761     0.0023323615  -0.0012359811   20.397909      18.950438      1.4474705     -1.5237854      18231.139    
     44000   1.0704723      0.0023323615  -0.0016817061   20.693279      19.103628      1.5896514     -1.3934505      18191.303    
     45000   1.0405937      0.0023323615   0.00049344789  20.538575      18.993293      1.5452817     -1.4940357      18355.244    
     46000   1.1246491      0.0023323615   0.0013169751   20.666556      18.996452      1.6701039     -1.5220202      18273.126    
     47000   0.98159366     0.0023323615  -4.449052e-05   20.5135        19.055834      1.4576666     -1.4788209      18179.124    
     48000   1.080741       0.0023323615  -0.003782934    20.755318      19.150417      1.6049004     -1.4123244      18208.201    
     49000   1.0274298      0.0023323615  -0.0043425689   20.53724       19.011506      1.5257333     -1.4765727      18471.213    
     50000   1.1398046      0.0023323615  -0.0023627355   20.529862      18.837252      1.6926098     -1.6766781      18287.938    
     51000   0.91380804     0.0023323615  -0.0017610066   20.468017      19.111012      1.3570049     -1.389714       18274.515    
     52000   1.0154544      0.0023323615  -0.0047981882   20.412463      18.904513      1.5079498     -1.6372025      18380.239    
     53000   0.98975342     0.0023323615  -0.0014708037   20.684606      19.214822      1.4697838     -1.2436934      18445.949    
     54000   1.089709       0.0023323615   0.00073146703  20.68107       19.062852      1.6182179     -1.4822273      18580.644    
     55000   1.1337291      0.0023323615  -0.00045480148  20.574217      18.89063       1.6835877     -1.5952169      18483.917    
     56000   0.93302159     0.0023323615   0.0036510387   20.196834      18.811297      1.3855371     -1.7516049      18376.01     
     57000   0.82977238     0.0023323615  -0.0011779125   20.245512      19.0133        1.232212      -1.428249       18355.422    
     58000   1.0064377      0.0023323615  -0.00033527072  20.600885      19.106325      1.49456       -1.5050719      18254.362    
     59000   0.90711076     0.0023323615  -0.0010710301   20.337053      18.989994      1.3470595     -1.4315434      18312.525    
     60000   0.85071052     0.0023323615  -9.7891281e-05  20.371766      19.108461      1.2633051     -1.3298859      18474.995    
     61000   0.9313849      0.0023323615   0.0010608674   20.659579      19.276472      1.3831066     -1.1812031      18420.384    
     62000   0.90048166     0.0023323615   0.00081372504  20.480449      19.143234      1.3372153     -1.3676384      18296.869    
     63000   0.99548835     0.0023323615   0.00093844555  20.753644      19.275344      1.4783002     -1.2182773      18466.313    
     64000   0.99638887     0.0023323615  -0.002647473    20.511407      19.03177       1.4796375     -1.4227561      18464.878    
     65000   0.9352317      0.0023323615   0.0022719037   20.357137      18.968318      1.3888191     -1.414906       18463.143    
     66000   1.036548       0.0023323615   0.0023436218   20.77977       19.240497      1.5392737     -1.4120912      18515.991    
     67000   1.0114144      0.0023323615   0.00089310312  20.656245      19.154294      1.5019504     -1.3042325      18526.439    
     68000   0.99510916     0.0023323615   0.00022570981  20.716808      19.239071      1.4777371     -1.2699349      18418.494    
     69000   0.98021733     0.0023323615  -0.00068422855  20.491803      19.03618       1.4556227     -1.5705015      18407.434    
     70000   0.98147897     0.0023323615  -0.00065832375  20.36422       18.906724      1.4574963     -1.5640139      18406.939    
     71000   0.98393524     0.0023323615   0.0025155728   20.719728      19.258584      1.4611438     -1.2825389      18495.251    
     72000   0.91706352     0.0023323615   0.0015954896   20.387239      19.0254        1.3618393     -1.4767621      18578.036    
     73000   0.93201607     0.0023323615  -0.003205253    20.794228      19.410184      1.3840439     -1.1085303      18490.002    
     74000   0.86961859     0.0023323615  -0.002671262    20.265477      18.974094      1.2913836     -1.5126151      18426.662    
     75000   1.0051035      0.0023323615  -0.0013381508   20.535039      19.04246       1.4925787     -1.3932003      18538.751    
     76000   1.2690948      0.0023323615  -0.0016363662   21.04913       19.164524      1.8846057     -1.3603579      18527.849    
     77000   0.99068474     0.0023323615  -0.0010220401   20.861802      19.390635      1.4711668     -1.165507       18607.159    
     78000   0.92352874     0.0023323615  -0.0049938462   20.750922      19.379482      1.3714402     -1.2352908      18582.688    
     79000   0.89967746     0.0023323615   0.0033212118   20.438316      19.102295      1.336021      -1.3829194      18495.272    
     80000   1.0296098      0.0023323615   0.00058498396  20.805636      19.276666      1.5289705     -1.3090322      18399.362    
     81000   1.0954245      0.0023323615  -0.0027318611   20.566533      18.939828      1.6267054     -1.5055164      18425.101    
     82000   0.98247447     0.0023323615   0.00055238966  20.529373      19.070399      1.4589746     -1.4636335      18455.561    
     83000   0.96308937     0.0023323615   0.0034885779   20.261279      18.831092      1.4301877     -1.5060528      18397.287    
     84000   0.83863482     0.0023323615  -0.0038284468   20.291931      19.046558      1.2453727     -1.382228       18239.668    
     85000   1.0475272      0.0023323615   0.0013297702   20.355884      18.800306      1.5555778     -1.6708533      18299.71     
     86000   0.94214731     0.0023323615  -0.00023811643  20.303918      18.904829      1.3990888     -1.5993291      18378.168    
     87000   0.99516192     0.0023323615   0.003434383    20.694217      19.216402      1.4778155     -1.3990269      18522.771    
     88000   1.0192148      0.0023323615   0.0015715481   20.304711      18.791177      1.513534      -1.6128479      18463.884    
     89000   1.0065039      0.0023323615   0.0016849893   20.51895       19.024292      1.4946582     -1.4213042      18265.984    
     90000   0.98621459     0.0023323615  -0.0036840592   20.786482      19.321954      1.4645287     -1.2964567      18499.135    
     91000   0.91079607     0.0023323615  -0.0016216994   20.477462      19.124929      1.3525322     -1.3423415      18589.475    
     92000   0.97617908     0.0023323615   0.0013271439   20.615612      19.165986      1.4496259     -1.3271942      18547.188    
     93000   1.1278533      0.0023323615   0.0011309718   20.423717      18.748855      1.6748621     -1.7675607      18426.281    
     94000   1.0250588      0.0023323615   0.0013730517   20.894834      19.372622      1.5222122     -1.1979195      18416.774    
     95000   1.0603504      0.0023323615  -0.00095300407  20.840423      19.265803      1.5746203     -1.2839998      18411.472    
     96000   0.92002474     0.0023323615  -0.0034359818   20.459224      19.092987      1.3662367     -1.4600544      18461.367    
     97000   1.0156256      0.0023323615  -0.0035386355   20.954295      19.446091      1.508204      -1.0898266      18486.033    
     98000   1.0664666      0.0023323615   0.0001594454   20.80266       19.218957      1.5837028     -1.3415238      18980.151    
     99000   1.0013963      0.0023323615   0.0039576036   20.875569      19.388496      1.4870735     -1.0877752      19715.808    
    100000   1.1411777      0.0023323615   0.00011208427  20.95424       19.259592      1.694649      -1.1416632      19076.498    
    101000   1.0114704      0.0023323615   1.9175551e-05  20.636601      19.134568      1.5020335     -1.334737       18737.717    
    102000   1.0795704      0.0023323615   0.0012235644   20.812846      19.209684      1.603162      -1.3487035      18673.772    
    103000   1.1210768      0.0023323615  -0.0024889677   21.06644       19.401641      1.6647991     -1.2012411      18635.417    
    104000   1.0143587      0.0023323615  -0.00093074765  20.791098      19.284775      1.5063227     -1.3031331      18593.329    
    105000   1.0035166      0.0023323615   0.00090488385  20.419942      18.92972       1.4902222     -1.5261753      18543.308    
    106000   1.0105245      0.0023323615   0.0015433284   20.466365      18.965736      1.5006289     -1.441346       18445.438    
    107000   0.9108595      0.0023323615  -0.00048456777  20.327169      18.974543      1.3526264     -1.5133869      18355.152    
    108000   0.9769621      0.0023323615   0.0026353317   20.727863      19.277074      1.4507887     -1.3236726      18401.984    
    109000   0.98380506     0.0023323615  -0.004357878    20.514276      19.053325      1.4609505     -1.4344188      18293.093    
    110000   1.101742       0.0023323615   0.0037929135   20.794329      19.158242      1.6360868     -1.4547087      18497.856    
    111000   0.84706592     0.0023323615   0.0037003907   20.226163      18.96827       1.2578929     -1.5985698      18298.456    
    112000   1.0794741      0.0023323615   0.00041837293  20.653569      19.05055       1.603019      -1.4846043      18421.972    
    113000   0.92007218     0.0023323615   0.00046056976  20.241729      18.875422      1.3663072     -1.6836639      18391.49     
    114000   0.9683184      0.0023323615  -0.00075013866  20.577571      19.139618      1.4379528     -1.3991232      18360.7      
    115000   1.0130537      0.0023323615   0.0035356401   20.527925      19.02354       1.5043847     -1.4416585      18398.765    
    116000   0.91439567     0.0023323615  -5.4783542e-06  20.411471      19.053594      1.3578776     -1.4988412      18471.634    
    117000   1.157263       0.0023323615   0.001787389    20.810909      19.092374      1.7185356     -1.581191       18396.934    
    118000   1.0585839      0.0023323615  -0.00016094612  20.812906      19.240909      1.571997      -1.320044       18462.084    
    119000   1.0344035      0.0023323615   0.0017037702   20.439935      18.903846      1.5360891     -1.607821       18551.269    
    120000   1.0943341      0.0023323615   0.002411272    20.897527      19.272441      1.6250861     -1.3113399      18499.303    
    121000   1.0468042      0.0023323615  -0.0006176677   20.60962       19.055116      1.5545042     -1.5033182      18442.896    
    122000   1.0239577      0.0023323615  -0.0013901122   20.567555      19.046978      1.5205773     -1.4797671      18535.573    
    123000   0.92431876     0.0023323615  -0.0020736591   20.371458      18.998845      1.3726134     -1.4974711      18530.832    
    124000   0.94349027     0.0023323615  -0.0025675499   20.370508      18.969425      1.4010831     -1.4943254      18449.185    
    125000   1.133042       0.0023323615  -0.00057652388  21.069963      19.387396      1.6825673     -1.1716915      18529.565    
    126000   1.0521792      0.0023323615   0.0032037171   20.449828      18.887342      1.5624861     -1.5941707      18503.799    
    127000   0.91108688     0.0023323615  -0.0015808907   20.338538      18.985574      1.352964      -1.4601692      18453.343    
    128000   0.97863492     0.0023323615   0.00310372     20.770677      19.317404      1.4532729     -1.3943656      18369.878    
    129000   1.1159242      0.0023323615   3.4720097e-05  20.684792      19.027645      1.6571474     -1.5056082      18464.53     
    130000   1.1498944      0.0023323615  -0.0017109826   20.975502      19.267909      1.7075931     -1.2452944      18527.722    
    131000   1.0436856      0.0023323615   0.0010229253   20.654379      19.104506      1.5498731     -1.4290452      18454.151    
    132000   1.0168121      0.0023323615   0.0025680393   20.757038      19.247072      1.509966      -1.2994065      18476.722    
    133000   0.85713926     0.0023323615  -0.0016218438   20.281115      19.008263      1.2728518     -1.4858554      18382.849    
    134000   1.1202921      0.0023323615   1.4273896e-05  20.491         18.827367      1.6636337     -1.5892167      18299.271    
    135000   0.93332272     0.0023323615   0.00059778814  20.55252       19.166536      1.3859842     -1.3740717      18365.893    
    136000   0.91702621     0.0023323615  -0.0018024319   20.458082      19.096298      1.3617839     -1.4199482      18477.389    
    137000   0.91011196     0.0023323615   0.00024051779  20.564165      19.212648      1.3515163     -1.3084777      18371.149    
    138000   1.0064683      0.0023323615  -0.0012435179   20.736034      19.241429      1.4946054     -1.2590694      18504.499    
    139000   1.1490059      0.0023323615  -0.00081278589  20.829977      19.123704      1.7062738     -1.4754813      18516.276    
    140000   0.95621        0.0023323615  -0.0019202172   20.684711      19.264739      1.4199719     -1.2593853      18507.683    
    141000   0.78887751     0.0023323615  -0.0024097179   20.488529      19.317046      1.1714831     -1.2504267      18565.997    
    142000   0.97826785     0.0023323615   0.003536959    20.644416      19.191688      1.4527278     -1.3523138      18706.102    
    143000   0.98879584     0.0023323615   0.0022801904   20.460309      18.991947      1.4683618     -1.5051776      18509.385    
    144000   0.98713409     0.0023323615   0.0049249022   20.565097      19.099203      1.4658941     -1.3871095      18477.922    
    145000   1.0395724      0.0023323615   0.0025105996   20.670804      19.127039      1.543765      -1.5110178      18432.195    
    146000   0.9037306      0.0023323615   0.00045948375  20.578736      19.236696      1.3420399     -1.2549718      18528.682    
    147000   1.071344       0.0023323615   0.0031284352   20.842073      19.251128      1.5909459     -1.3355922      18619.047    
    148000   1.0413398      0.0023323615   0.0031507404   20.678943      19.132553      1.5463895     -1.5093344      18354.44     
    149000   0.92315319     0.0023323615  -0.0018955617   20.405235      19.034352      1.3708825     -1.4062065      18448.919    
    150000   1.0986032      0.0023323615  -0.0015024565   20.826501      19.195076      1.6314257     -1.2609164      18586.934    
    151000   1.057801       0.0023323615  -0.0016634101   20.717807      19.146973      1.5708345     -1.2719411      18541.499    
    152000   1.0716577      0.0023323615   0.00050794222  20.677583      19.086171      1.5914117     -1.5624974      18575.108    
    153000   0.94061669     0.0023323615   0.0015352727   20.434848      19.038032      1.3968158     -1.5242935      18353.586    
    154000   1.0757392      0.0023323615  -0.0022863036   20.552178      18.954705      1.5974728     -1.53674        18329.532    
    155000   0.94059392     0.0023323615  -0.00015581328  20.263143      18.866361      1.396782      -1.6471104      18475.463    
    156000   0.96022634     0.0023323615  -0.0051093085   20.350629      18.924692      1.4259361     -1.6309188      18502.087    
    157000   1.1634996      0.0023323615  -0.00053548531  20.860032      19.132235      1.7277969     -1.3803826      18464.018    
    158000   1.1224592      0.0023323615   0.0023793859   20.537322      18.87047       1.6668519     -1.5351367      18597.382    
    159000   0.97899888     0.0023323615  -0.001322303    20.49425       19.040437      1.4538133     -1.5503673      18561.122    
    160000   1.1965146      0.0023323615   0.00029384853  20.656395      18.879571      1.7768242     -1.6035661      18517.705    
    161000   0.95232323     0.0023323615  -0.0050971709   20.543834      19.129634      1.4142        -1.4322381      18422.934    
    162000   0.93795574     0.0023323615  -0.0019814566   20.478164      19.0853        1.3928643     -1.5050004      18443.632    
    163000   0.99425666     0.0023323615  -0.00058930363  20.605485      19.129014      1.4764711     -1.2573612      18671.543    
    164000   1.0573167      0.0023323615  -0.0024197535   20.64336       19.073244      1.5701153     -1.449912       18599.261    
    165000   0.97243736     0.0023323615  -0.0022609057   20.489027      19.044957      1.4440695     -1.5055173      18444.385    
    166000   1.0774648      0.0023323615   0.0013031759   20.506058      18.906023      1.6000353     -1.7130627      18489.077    
    167000   1.0775873      0.0023323615   0.0015064397   20.740346      19.140129      1.6002171     -1.4765533      18395.276    
    168000   1.0890473      0.0023323615  -0.0015852591   20.735072      19.117837      1.6172353     -1.2586891      18647.16     
    169000   0.92909623     0.0023323615   0.0015736307   20.687898      19.30819       1.3797079     -1.1141357      18687.497    
    170000   1.0822525      0.0023323615   0.0021795903   20.608018      19.000873      1.607145      -1.4719617      18578.489    
    171000   1.16712        0.0023323615   0.00055209864  20.980177      19.247004      1.7331731     -1.4988825      18575.941    
    172000   0.93110034     0.0023323615  -0.0023538616   20.052403      18.669719      1.382684      -1.8174633      18468.472    
    173000   1.0186277      0.0023323615  -0.00060959101  20.390206      18.877544      1.5126621     -1.7011591      18461.746    
    174000   0.99509942     0.0023323615   0.0033714316   20.67081       19.193087      1.4777226     -1.4143134      18450.335    
    175000   1.0486969      0.0023323615   0.0047529796   20.459598      18.902283      1.5573149     -1.5984718      18391.89     
    176000   0.99263946     0.0023323615   0.0013568351   20.432305      18.958235      1.4740696     -1.5849841      18349.301    
    177000   1.0160391      0.0023323615  -0.0017877448   20.612749      19.103931      1.5088181     -1.3497074      18535.481    
    178000   0.98809482     0.0023323615   0.00030988627  20.774189      19.306868      1.4673208     -1.2461618      18562.523    
    179000   0.98887671     0.0023323615  -0.00024969014  20.596178      19.127696      1.4684819     -1.4275164      18647.557    
    180000   0.94231457     0.0023323615   0.003807552    20.622857      19.22352       1.3993371     -1.3243429      18814.354    
    181000   1.0040009      0.0023323615  -0.00160806     20.896891      19.40595       1.4909414     -1.2041816      18854.475    
    182000   0.98797827     0.0023323615   0.0026599474   20.707869      19.240721      1.4671477     -1.2831905      18688.694    
    183000   0.88961788     0.0023323615   0.0012238118   20.346416      19.025333      1.3210826     -1.5122535      18634.328    
    184000   1.0161764      0.0023323615   0.00077200332  20.859506      19.350484      1.5090219     -1.1174201      18471.354    
    185000   1.0954331      0.0023323615   0.0016523028   20.59946       18.972742      1.6267181     -1.5652768      18488.084    
    186000   0.97455328     0.0023323615   0.0017790604   20.402195      18.954984      1.4472116     -1.4788245      18397.846    
    187000   1.0947619      0.0023323615  -0.0011884852   20.808922      19.1832        1.6257215     -1.337571       18561.522    
    188000   1.0512335      0.0023323615   0.0036400727   20.930954      19.369872      1.5610818     -1.2255639      18553.469    
    189000   1.1134291      0.0023323615   0.0014818913   20.927713      19.27427       1.6534422     -1.2076164      18477.96     
    190000   1.0479024      0.0023323615   0.00092696694  20.656184      19.100049      1.556135      -1.3918995      18496.831    
    191000   0.95555068     0.0023323615   0.0034064069   20.659043      19.24005       1.4189928     -1.3236067      18346.755    
    192000   0.88000722     0.0023323615  -0.0041684027   20.521089      19.214279      1.3068107     -1.2910809      18368.228    
    193000   0.91500008     0.0023323615   0.00073308875  20.517557      19.158781      1.3587751     -1.3280017      18309.64     
    194000   0.93552269     0.0023323615  -0.0023599556   20.650888      19.261637      1.3892512     -1.3882685      18527.447    
    195000   1.0994702      0.0023323615  -0.00049218233  20.524522      18.891809      1.6327133     -1.6126212      18490.869    
    196000   0.99359933     0.0023323615   0.0018113001   20.534444      19.058949      1.475495      -1.4499012      18417.522    
    197000   0.95935067     0.0023323615  -0.00050002168  20.381588      18.956953      1.4246357     -1.542275       18444.842    
    198000   1.1130574      0.0023323615   0.00077920718  20.856835      19.203945      1.6528903     -1.2148315      18574.859    
    199000   0.98862416     0.0023323615  -0.0014485542   20.943631      19.475525      1.4681069     -1.1953612      18519.784    
    200000   1.0255298      0.0023323615   0.00022434092  20.386468      18.863556      1.5229118     -1.5783474      18470.667    
    201000   1.0938982      0.0023323615  -0.0014950028   20.468379      18.84394       1.6244388     -1.5830361      18487.803    
    202000   0.93778384     0.0023323615  -0.0025063331   20.569221      19.176612      1.392609      -1.3679338      18515.63     
    203000   1.0172705      0.0023323615  -0.0014893472   20.441458      18.930811      1.5106467     -1.6888727      18498.01     
    204000   0.94133112     0.0023323615   0.0059554913   20.45555       19.057673      1.3978767     -1.4225819      18520.334    
    205000   1.0256475      0.0023323615  -0.0020136773   20.898408      19.375322      1.5230866     -1.2181271      18624.189    
    206000   1.0931952      0.0023323615   0.0003741331   20.832527      19.209132      1.6233948     -1.2803693      18635.852    
    207000   0.96341208     0.0023323615   0.00032924403  20.430237      18.99957       1.4306669     -1.5402453      18423.893    
    208000   1.0894222      0.0023323615  -0.0021524192   20.675008      19.057216      1.6177919     -1.3502293      18455.022    
    209000   0.87898616     0.0023323615  -0.0023670868   20.535375      19.23008       1.3052945     -1.3732516      18523.658    
    210000   1.0695681      0.0023323615  -0.0021279729   20.674795      19.086486      1.5883087     -1.4821572      18443.928    
    211000   1.0653956      0.0023323615   0.00020448183  20.478057      18.895945      1.5821124     -1.5503222      18356.631    
    212000   1.053891       0.0023323615   0.0021193068   20.75999       19.194962      1.5650282     -1.2161731      18480.865    
    213000   0.86800429     0.0023323615  -0.0026083648   20.460256      19.17127       1.2889864     -1.3728808      18545.968    
    214000   0.92543337     0.0023323615   0.0020554204   20.241593      18.867324      1.3742686     -1.6032158      18506.121    
    215000   0.94817404     0.0023323615   0.00051067842  20.413801      19.005763      1.4080384     -1.4480864      18384.935    
    216000   0.91119099     0.0023323615   0.00067217748  20.513091      19.159973      1.3531186     -1.3161472      18466.61     
    217000   0.90476095     0.0023323615  -0.0022128232   20.392417      19.048847      1.34357       -1.4104389      18522.761    
    218000   1.0031723      0.0023323615   0.0028199831   20.338684      18.848973      1.4897108     -1.6408152      18441.369    
    219000   1.1107063      0.0023323615  -0.0021456696   20.807214      19.157815      1.6493989     -1.394456       18498.175    
    220000   0.9773663      0.0023323615   0.00095979305  20.320483      18.869094      1.451389      -1.5755148      18402.463    
    221000   0.98589913     0.0023323615  -0.0032354205   20.603707      19.139647      1.4640602     -1.4413284      18435.613    
    222000   1.0804244      0.0023323615   0.010182811    20.874197      19.269767      1.6044303     -1.3813253      18382.328    
    223000   0.83089261     0.0023323615   0.00017004266  20.186304      18.952428      1.2338755     -1.5850304      18358.924    
    224000   1.0438106      0.0023323615  -0.0021078226   20.619389      19.06933       1.5500588     -1.3612098      18391.971    
    225000   0.93524985     0.0023323615  -0.0028246422   20.527681      19.138835      1.388846      -1.4682056      18372.607    
    226000   0.96480097     0.0023323615  -0.0014415281   20.503236      19.070507      1.4327294     -1.4811824      18351.727    
    227000   0.9683421      0.0023323615   0.0019046447   20.524386      19.086398      1.437988      -1.3834695      18274.943    
    228000   0.84563883     0.0023323615  -0.0017214076   20.407538      19.151764      1.2557737     -1.5523133      18444.899    
    229000   1.0479849      0.0023323615   0.0013788744   20.455781      18.899523      1.5562576     -1.5794516      18392.923    
    230000   1.0556739      0.0023323615  -0.0037614466   20.34243       18.774754      1.5676757     -1.5924598      18513.45     
    231000   1.017982       0.0023323615  -0.0016872558   20.250568      18.738864      1.5117032     -1.862312       18356.77     
    232000   0.99863708     0.0023323615  -0.003225843    20.495007      19.012031      1.4829761     -1.4287166      18519.85     
    233000   1.0935055      0.0023323615  -0.0026764851   20.694542      19.070687      1.6238556     -1.5194297      18462.265    
    234000   1.0221684      0.0023323615   0.0022250788   20.575422      19.057502      1.5179201     -1.4067         18459.049    
    235000   0.94012984     0.0023323615  -0.0014730184   20.274623      18.878531      1.3960928     -1.5892091      18484.359    
    236000   1.0696924      0.0023323615   0.0031138594   20.532123      18.94363       1.5884932     -1.5446236      18377.515    
    237000   1.0384919      0.0023323615  -0.00087507445  20.287898      18.745738      1.5421604     -1.7015204      18489.968    
    238000   0.89636143     0.0023323615   0.00024936327  20.247835      18.916738      1.3310967     -1.5238713      18408.793    
    239000   0.97007782     0.0023323615  -8.0352848e-05  20.535725      19.095159      1.4405656     -1.3741494      18503.871    
    240000   0.98755982     0.0023323615   0.00093055883  20.709148      19.242621      1.4665263     -1.2350653      18770.181    
    241000   0.94945904     0.0023323615   0.00064466499  20.960527      19.55058       1.4099467     -1.0247648      18902.296    
    242000   1.2184761      0.0023323615   0.0040505001   21.16605       19.356613      1.809437      -1.1350706      19087.548    
    243000   0.92030096     0.0023323615  -0.0052281231   20.513         19.146353      1.3666469     -1.4307106      18727.982    
    244000   0.96453565     0.0023323615   0.00067462216  20.466595      19.03426       1.4323354     -1.4610077      18517.07     
    245000   1.0700879      0.0023323615  -0.0021765222   20.796711      19.207631      1.5890806     -1.3474032      18611.611    
    246000   0.85800842     0.0023323615   0.0009268122   20.293817      19.019675      1.2741425     -1.4122379      18551.569    
    247000   1.0496895      0.0023323615   0.0016049496   20.689644      19.130855      1.5587889     -1.3658994      18549.066    
    248000   0.923813       0.0023323615   3.1194467e-05  20.66113       19.289268      1.3718623     -1.3031038      18408.548    
    249000   0.87387973     0.0023323615  -0.0035756759   20.599748      19.302036      1.2977114     -1.2287556      18694.35     
    250000   1.0971593      0.0023323615  -0.0011245341   21.160585      19.531304      1.6292815     -1.1364397      19067.341    
    251000   1.1135416      0.0023323615   0.0024308284   20.928401      19.274791      1.6536092     -1.2076649      18925.761    
    252000   0.98364485     0.0023323615  -0.001197219    20.72467       19.263957      1.4607126     -1.3020105      18830.185    
    253000   0.89567272     0.0023323615   0.0031374369   20.932335      19.602261      1.330074      -1.1055121      19056.416    
    254000   1.0706269      0.0023323615  -0.00020388448  20.655516      19.065635      1.5898809     -1.4492592      18548.018    
    255000   0.9385582      0.0023323615  -0.0045033151   20.643333      19.249574      1.3937589     -1.2873046      18617.801    
    256000   0.90050147     0.0023323615  -2.6684688e-05  20.3555        19.018255      1.3372447     -1.4133005      18534.462    
    257000   0.90997162     0.0023323615  -0.00079827382  20.475582      19.124274      1.3513079     -1.3299364      18416.098    
    258000   0.99357393     0.0023323615  -0.0015771981   20.449536      18.974079      1.4754573     -1.6107787      18366.687    
    259000   1.1022131      0.0023323615   0.00024361813  20.644962      19.008175      1.6367865     -1.4156547      18285.59     
    260000   1.0605536      0.0023323615  -0.004428164    20.782392      19.20747       1.5749221     -1.3821726      18285.881    
    261000   1.1550351      0.0023323615  -0.00018969739  21.22636       19.511133      1.7152271     -1.1172469      18494.292    
    262000   1.0034038      0.0023323615  -0.0042941987   21.014581      19.524526      1.4900546     -1.1446032      19043.868    
    263000   0.98539425     0.0023323615  -0.0010970835   20.596759      19.133448      1.4633105     -1.3968491      18516.352    
    264000   0.8426105      0.0023323615   0.00073687669  20.165066      18.91379       1.2512766     -1.4483704      18412.467    
    265000   0.96296131     0.0023323615  -0.00026401785  20.50376       19.073763      1.4299976     -1.4904999      18359.579    
    266000   0.97037539     0.0023323615  -0.0041503427   20.813572      19.372564      1.4410075     -1.3005581      18351.744    
    267000   1.1333864      0.0023323615   0.00032604818  20.80314       19.120061      1.6830788     -1.3448773      18436.372    
    268000   1.1223658      0.0023323615   0.0020006707   20.761778      19.095065      1.6667132     -1.3721763      18580.284    
    269000   1.0288088      0.0023323615  -0.0015603532   20.582095      19.054313      1.5277811     -1.5171689      18415.575    
    270000   1.0269973      0.0023323615  -0.0017508113   20.720525      19.195434      1.525091      -1.2764466      18431.752    
    271000   0.98255586     0.0023323615   0.0014634874   20.594499      19.135403      1.4590955     -1.3403918      18363.321    
    272000   1.0743607      0.0023323615   0.001011356    20.856246      19.26082       1.5954257     -1.2207309      18503.305    
    273000   1.0097637      0.0023323615   0.00015164577  20.891779      19.39228       1.4994991     -1.1001637      18611.056    
    274000   0.96917808     0.0023323615  -0.0032946484   20.783427      19.344198      1.4392295     -1.2056376      18789.586    
    275000   1.0479885      0.0023323615  -0.00071795209  20.777085      19.220822      1.5562629     -1.3710194      18536.995    
    276000   0.85898        0.0023323615  -0.0034111763   20.712394      19.436809      1.2755853     -1.083773       18720.591    
    277000   1.0053642      0.0023323615   0.00076188102  20.78153       19.288564      1.4929658     -1.1470492      18726.552    
    278000   1.0260562      0.0023323615  -0.0027757746   20.490852      18.967159      1.5236935     -1.4648606      18599.909    
    279000   0.93920109     0.0023323615   0.0036346547   20.222811      18.828097      1.3947136     -1.6684684      18460.319    
    280000   1.0451905      0.0023323615  -0.0023537001   20.257341      18.705233      1.552108      -1.7147646      18387.732    
    281000   1.005543       0.0023323615  -0.00047915842  20.330699      18.837468      1.4932314     -1.5194723      18390.711    
    282000   1.0181939      0.0023323615  -0.0061281146   20.572393      19.060376      1.5120179     -1.4785955      18433.982    
    283000   0.94934461     0.0023323615  -0.0026852528   20.140682      18.730906      1.4097767     -1.6811918      18367.674    
    284000   0.9107899      0.0023323615  -0.0023383447   20.271354      18.918831      1.352523      -1.5370142      18272.427    
    285000   0.99301538     0.0023323615  -0.00065830335  20.585879      19.111251      1.4746278     -1.3001859      18465.373    
    286000   1.0091145      0.0023323615   0.0014008595   20.757871      19.259336      1.498535      -1.335663       18367.001    
    287000   1.0237245      0.0023323615  -0.0048406198   20.633063      19.112832      1.5202308     -1.3457197      18614.697    
    288000   1.0069702      0.0023323615  -0.00074266782  20.744313      19.248962      1.4953508     -1.3705342      18582.096    
    289000   0.93848551     0.0023323615   0.00079988565  20.632618      19.238967      1.393651      -1.2611557      18615.513    
    290000   0.91901556     0.0023323615   0.0060869391   20.687801      19.323063      1.3647381     -1.3333374      18543.645    
    291000   1.0479592      0.0023323615  -0.0019013066   20.472196      18.915976      1.5562194     -1.5236718      18613.023    
    292000   1.2092718      0.0023323615   0.0011267049   20.934671      19.138903      1.7957687     -1.506353       18544.155    
    293000   1.0059225      0.0023323615   0.0026316955   20.684265      19.19047       1.4937949     -1.354999       18556.708    
    294000   0.92969611     0.0023323615  -0.002702844    20.592557      19.211958      1.3805987     -1.2833205      18727.729    
    295000   0.99941514     0.0023323615  -0.0031281036   20.720812      19.23668       1.4841315     -1.2889951      18680.824    
    296000   0.95259605     0.0023323615  -0.00069494141  20.479257      19.064652      1.4146051     -1.448813       18677.335    
    297000   0.96040776     0.0023323615  -0.003971791    20.585431      19.159226      1.4262055     -1.3342791      18629.539    
    298000   1.0030878      0.0023323615   0.0036470608   20.753335      19.263749      1.4895854     -1.2706024      18644.161    
    299000   1.0286706      0.0023323615  -0.00047205865  20.413564      18.885988      1.5275759     -1.5380354      18515.583    
    300000   1.0260818      0.0023323615   0.0017583269   20.479257      18.955525      1.5237315     -1.5722412      18458.366    
    301000   0.92215154     0.0023323615  -0.0030816596   20.261751      18.892356      1.369395      -1.6513676      18483.318    
    302000   1.0368498      0.0023323615   0.00015479729  20.618918      19.079196      1.539722      -1.3817026      18481.128    
    303000   0.95348194     0.0023323615  -0.0020515433   20.482858      19.066937      1.4159207     -1.3406622      18497.719    
    304000   1.0335027      0.0023323615  -0.00019792798  20.621973      19.087221      1.5347515     -1.3806089      18571.765    
    305000   0.95320965     0.0023323615   0.00089936755  20.780621      19.365104      1.4155163     -1.2225962      18645.188    
    306000   0.96578392     0.0023323615  -0.0037855248   20.509385      19.075195      1.4341891     -1.5336416      18548.518    
    307000   0.85236913     0.0023323615   0.0025181203   20.404763      19.138995      1.2657682     -1.3073069      18416.601    
    308000   1.057629       0.0023323615  -0.00081506386  20.696477      19.125898      1.570579      -1.4480058      18529.586    
    309000   1.002046       0.0023323615  -0.0011413986   20.455926      18.967888      1.4880382     -1.4964273      18479.082    
    310000   0.93481834     0.0023323615  -0.0030814918   20.447625      19.05942       1.3882052     -1.4683276      18291.236    
    311000   0.96159396     0.0023323615   0.0043117726   20.598156      19.170189      1.427967      -1.4683449      18329.06     
    312000   0.90517885     0.0023323615  -0.003032357    20.58111       19.236919      1.3441906     -1.2640237      18419.664    
    313000   0.97592389     0.0023323615   0.0035640687   20.369053      18.919806      1.449247      -1.6291524      18503.151    
    314000   1.0835608      0.0023323615  -0.0014937839   20.838786      19.229699      1.6090877     -1.3761864      18542.226    
    315000   0.95378409     0.0023323615   0.0057517957   20.433757      19.017388      1.4163694     -1.5284513      18347.041    
    316000   0.96676076     0.0023323615   0.00064646886  20.237325      18.801685      1.4356397     -1.7099733      18388.529    
    317000   0.95235588     0.0023323615  -0.0012840067   20.361579      18.947331      1.4142485     -1.5530816      18469.627    
    318000   1.0934314      0.0023323615  -0.00030162593  20.646559      19.022813      1.6237456     -1.4350873      18555.477    
    319000   1.1804492      0.0023323615   0.0018373796   20.782375      19.029408      1.752967      -1.4848988      18555.756    
    320000   0.98101516     0.0023323615   0.00428987     20.508453      19.051645      1.4568075     -1.4989145      18605.154    
    321000   1.0277214      0.0023323615  -0.0024104038   20.468001      18.941835      1.5261662     -1.5166717      18421.999    
    322000   1.0541722      0.0023323615   0.0049964925   20.715704      19.150258      1.5654458     -1.389809       18504.701    
    323000   0.97841816     0.0023323615   0.0015858262   20.430002      18.977051      1.452951      -1.4806325      18385.612    
    324000   0.89663321     0.0023323615   0.00016078673  20.36632       19.03482       1.3315003     -1.3960149      18413.102    
    325000   1.1510644      0.0023323615   0.0016133695   20.895314      19.185984      1.7093306     -1.33944        18401.686    
    326000   1.0671413      0.0023323615   0.0025658433   20.681188      19.096483      1.5847048     -1.497436       18468.606    
    327000   1.0972681      0.0023323615  -0.0016722068   20.461265      18.831822      1.6294431     -1.5822532      18372.478    
    328000   1.0478522      0.0023323615  -0.0014623497   20.800565      19.244504      1.5560606     -1.3252332      18407.455    
    329000   0.98259234     0.0023323615  -0.0017013711   20.57805       19.118901      1.4591496     -1.402354       18510.133    
    330000   1.064098       0.0023323615  -0.0017991652   20.640694      19.060509      1.5801856     -1.446954       18518.691    
    331000   1.0647626      0.0023323615   0.0024181421   20.964755      19.383583      1.5811724     -1.1435442      18546.299    
    332000   0.98216481     0.0023323615  -0.0028937706   20.766663      19.308149      1.4585147     -1.1875631      18679.765    
    333000   0.97911794     0.0023323615  -0.00028813856  20.757752      19.303762      1.4539901     -1.3224503      18363.331    
    334000   0.90327859     0.0023323615   0.00081027086  20.329282      18.987913      1.3413687     -1.4525375      18465.954    
    335000   1.0571332      0.0023323615   0.00026428749  20.697644      19.127801      1.5698428     -1.3382287      18417.607    
    336000   1.0110618      0.0023323615  -0.0033878955   20.751724      19.250297      1.5014267     -1.3120798      18535.46     
    337000   1.065069       0.0023323615   0.00070265016  20.504547      18.922919      1.5816275     -1.4386712      18813.304    
    338000   1.0130951      0.0023323615  -0.0015427366   20.425915      18.921469      1.5044462     -1.5260268      18418.283    
    339000   0.96170541     0.0023323615   0.0011038559   20.516216      19.088084      1.4281325     -1.3877258      18569.295    
    340000   0.84526773     0.0023323615   0.00031872147  20.494518      19.239295      1.2552226     -1.3117303      18574.057    
    341000   0.99321691     0.0023323615   0.0012970046   20.625594      19.150667      1.4749271     -1.3041157      18431.306    
    342000   1.0259237      0.0023323615   0.0053432175   20.699792      19.176295      1.5234967     -1.3371707      18477.006    
    343000   0.91148795     0.0023323615   0.0052571886   20.246561      18.893002      1.3535596     -1.552666       18595.2      
    344000   0.94621278     0.0023323615  -0.00073847662  20.632343      19.227217      1.405126      -1.2799431      18381.373    
    345000   1.1033227      0.0023323615   0.0015136311   20.933477      19.295042      1.6384342     -1.3450116      18313.722    
    346000   1.0853566      0.0023323615  -0.0018683037   20.99759       19.385835      1.6117546     -1.2785204      18525.562    
    347000   1.0282872      0.0023323615  -0.002381709    20.741191      19.214185      1.5270066     -1.4745985      18508.376    
    348000   0.98394709     0.0023323615   0.0052127283   20.529376      19.068214      1.4611614     -1.4969037      18409.217    
    349000   1.0582486      0.0023323615  -0.0057556006   20.748211      19.176712      1.5714992     -1.5120131      18496.118    
    350000   1.0625147      0.0023323615  -0.001992971    20.682356      19.104522      1.5778343     -1.4504584      18367.934    
    351000   0.96563535     0.0023323615   0.0035875204   20.316495      18.882526      1.4339685     -1.5979969      18291.805    
    352000   0.97916941     0.0023323615  -0.0012289085   20.334423      18.880357      1.4540666     -1.6723591      18358.741    
    353000   1.025748       0.0023323615   0.00067846592  20.592474      19.069238      1.5232358     -1.4098411      18405.242    
    354000   0.97098638     0.0023323615   0.002730875    20.468654      19.026739      1.4419148     -1.4327223      18418.287    
    355000   0.88172921     0.0023323615   0.0028309765   20.229758      18.92039       1.3093679     -1.5127985      18316.602    
    356000   1.0188896      0.0023323615   0.00096989812  20.540157      19.027106      1.5130511     -1.4115368      18449.318    
    357000   0.96207568     0.0023323615   0.0037855655   20.721977      19.293294      1.4286824     -1.2810233      18547.794    
    358000   0.95137812     0.0023323615   0.002451286    20.434909      19.022113      1.4127965     -1.436733       18442.163    
    359000   1.1422713      0.0023323615   0.00054132293  20.909173      19.2129        1.6962729     -1.3529069      18394.066    
    360000   0.91536631     0.0023323615   0.0023916033   20.039503      18.680184      1.359319      -1.7470686      18396.7      
    361000   0.92312387     0.0023323615   0.0027744941   20.310788      18.939949      1.3708389     -1.4646138      18401.679    
    362000   1.0395944      0.0023323615   0.00068659168  20.607278      19.06348       1.5437977     -1.4852161      18449.158    
    363000   1.0521327      0.0023323615   0.00042355346  20.750958      19.188541      1.562417      -1.4685514      18478.761    
    364000   1.0021459      0.0023323615   0.0021279857   20.641846      19.153659      1.4881866     -1.4179403      18471.244    
    365000   1.1148038      0.0023323615   0.00074356879  20.740201      19.084717      1.6554837     -1.3645508      18466.75     
    366000   1.1583641      0.0023323615   0.0011169424   20.84176       19.121589      1.7201708     -1.4033097      18367.508    
    367000   1.0985443      0.0023323615  -0.0015392365   20.791509      19.160171      1.6313383     -1.3339277      18332.949    
    368000   1.1178152      0.0023323615   0.0047048927   20.659622      18.999666      1.6599555     -1.512083       18347.699    
    369000   0.94053124     0.0023323615   0.0031592382   20.340543      18.943854      1.3966889     -1.4759446      18414.036    
    370000   0.91008963     0.0023323615   0.0013261351   20.314401      18.962918      1.3514831     -1.4829764      18348.266    
    371000   1.0796647      0.0023323615   0.0028950496   20.571949      18.968647      1.6033021     -1.4082688      18485.513    
    372000   1.0792325      0.0023323615   0.0028171011   20.771984      19.169324      1.6026603     -1.2891128      18360.494    
    373000   0.95538134     0.0023323615   0.0016735785   20.656814      19.238072      1.4187413     -1.2497465      18413.975    
    374000   1.1147491      0.0023323615   0.00075173183  20.700868      19.045466      1.6554024     -1.4522669      18494.566    
    375000   1.0262725      0.0023323615   0.0065428636   20.711509      19.187494      1.5240147     -1.4561788      18359.19     
    376000   0.97627928     0.0023323615  -0.0022927868   20.397308      18.947533      1.4497747     -1.535358       18447.637    
    377000   0.97777471     0.0023323615  -0.0042675111   20.729342      19.277346      1.4519954     -1.2863239      18470.765    
    378000   1.0725814      0.0023323615  -0.00034401061  20.778288      19.185505      1.5927834     -1.3902116      18508.112    
    379000   1.0431875      0.0023323615   0.0033676976   20.894424      19.345291      1.5491335     -1.106874       18368.404    
    380000   0.90110726     0.0023323615  -0.0015141138   20.341915      19.00377       1.3381443     -1.5526847      18581.281    
    381000   0.95500468     0.0023323615  -0.0020346757   20.383845      18.965663      1.418182      -1.5483376      18408.555    
    382000   1.0076271      0.0023323615   0.0011754324   20.645763      19.149436      1.4963263     -1.3061644      18497.996    
    383000   1.0103434      0.0023323615   0.0046352834   20.525107      19.024747      1.50036       -1.5272798      18445.916    
    384000   0.99764038     0.0023323615  -0.00071983071  20.719883      19.238387      1.481496      -1.3252547      18321.147    
    385000   1.0624245      0.0023323615  -1.5243371e-05  20.622976      19.045275      1.5777004     -1.5626702      18351.808    
    386000   0.83593716     0.0023323615  -0.0047515456   20.271322      19.029955      1.2413667     -1.5740549      18448.619    
    387000   0.95696567     0.0023323615  -0.0019788595   20.718981      19.297887      1.421094      -1.296336       18616.432    
    388000   0.93650946     0.0023323615   0.0012683637   20.573558      19.182841      1.3907166     -1.4208744      18855.929    
    389000   1.066211       0.0023323615  -0.0017781206   20.617708      19.034384      1.5833233     -1.4999271      18461.138    
    390000   1.0547821      0.0023323615  -0.0013899991   20.795356      19.229005      1.5663514     -1.4390894      18497.815    
    391000   1.0728198      0.0023323615  -0.00053121049  20.600766      19.007629      1.5931373     -1.463435       18438.654    
    392000   0.99103456     0.0023323615  -0.0034372178   20.569399      19.097712      1.4716863     -1.4204909      18545.95     
    393000   1.0709498      0.0023323615   0.00012842322  20.836526      19.246166      1.5903605     -1.2964185      18534.039    
    394000   0.96397044     0.0023323615  -8.6033519e-05  20.736914      19.305417      1.4314961     -1.2645676      18597.791    
    395000   1.0671272      0.0023323615  -0.0018042936   20.973848      19.389164      1.5846839     -1.1957865      18497.777    
    396000   1.0682117      0.0023323615  -0.0021622618   20.664992      19.078698      1.5862944     -1.4188129      18521.138    
    397000   0.96378059     0.0023323615   0.00041521218  20.488171      19.056957      1.4312142     -1.4454074      18529.266    
    398000   0.97752877     0.0023323615  -0.0043611502   20.558498      19.106868      1.4516302     -1.371683       18423.74     
    399000   1.1654417      0.0023323615  -0.0027043176   20.886861      19.15618       1.7306809     -1.3661584      18434.622    
    400000   1.0822776      0.0023323615   0.0018901257   20.646661      19.039479      1.6071823     -1.4376097      18438.671    
    401000   1.1575414      0.0023323615  -0.00071137442  20.936526      19.217577      1.718949      -1.3602334      18458.65     
    402000   0.98354746     0.0023323615  -0.0046042621   20.566017      19.10545       1.460568      -1.4615751      18428.387    
    403000   1.0819234      0.0023323615   0.0037313316   20.876786      19.270129      1.6066563     -1.3149874      18490.297    
    404000   1.0622106      0.0023323615  -0.0024764701   20.700957      19.123574      1.5773828     -1.3203965      18674.998    
    405000   1.0199612      0.0023323615   0.0017151775   20.79932       19.284677      1.5146424     -1.2680009      18405.69     
    406000   1.0579296      0.0023323615   0.0046563825   20.715338      19.144313      1.5710255     -1.3449235      18576.097    
    407000   1.0139894      0.0023323615  -0.0012235907   20.769986      19.264212      1.5057742     -1.1951765      18674.603    
    408000   0.97403776     0.0023323615   0.0012196775   20.559799      19.113352      1.4464461     -1.349855       18456.592    
    409000   0.94575073     0.0023323615  -0.0025144637   20.571761      19.167321      1.4044398     -1.3591682      18446.741    
    410000   1.1413057      0.0023323615  -0.0049081878   20.8664        19.171561      1.694839      -1.3399614      18468.278    
[...]
    861000   1.059694       0.0023323615   0.0021127982   20.751497      19.177852      1.5736455     -1.352924       18215.149    
    862000   0.95555136     0.0023323615  -0.00081131483  20.522124      19.10313       1.4189938     -1.4631459      18195.169    
    863000   1.0394225      0.0023323615  -0.0023647545   20.641316      19.097774      1.5435424     -1.4064911      18208.168    
    864000   1.1484823      0.0023323615  -0.0023184284   20.77366       19.068164      1.7054962     -1.5094988      18299.103    
    865000   0.96616176     0.0023323615   0.0015619717   20.394616      18.959866      1.4347502     -1.4709763      18311.964    
    866000   0.89992518     0.0023323615  -0.00081571848  20.232559      18.89617       1.3363889     -1.57959        18309.391    
    867000   0.96618773     0.0023323615  -0.0021804592   20.263661      18.828872      1.4347888     -1.6772781      18306.493    
    868000   0.95724711     0.0023323615  -0.0029827273   20.790514      19.369002      1.421512      -1.3897375      18151.819    
    869000   1.0392247      0.0023323615  -0.0017077214   20.725014      19.181765      1.5432486     -1.3276684      18101.66     
    870000   0.97171886     0.0023323615  -0.0029024772   20.479231      19.036228      1.4430025     -1.5689075      18403.644    
    871000   1.0776724      0.0023323615   0.00088112084  20.543151      18.942807      1.6003436     -1.5739853      18350.431    
    872000   0.85708037     0.0023323615   0.00029612908  20.21117       18.938406      1.2727644     -1.4708958      18236.309    
    873000   1.0066712      0.0023323615   0.00061797765  20.606656      19.111749      1.4949068     -1.4503365      18132.68     
    874000   1.1100755      0.0023323615   0.0026564827   20.950565      19.302103      1.6484621     -1.201451       18251.848    
    875000   0.98876204     0.0023323615   0.0018652591   20.712638      19.244326      1.4683116     -1.2758365      18520.939    
    876000   0.99075249     0.0023323615   0.0026343095   20.740612      19.269344      1.4712675     -1.3871564      18679.681    
    877000   0.84932762     0.0023323615   0.001137473    20.392828      19.131577      1.2612515     -1.3803971      18467.929    
    878000   0.97852732     0.0023323615   0.0016141124   20.941603      19.48849       1.4531131     -1.044429       18461.118    
    879000   1.0749193      0.0023323615  -0.00028706683  20.745952      19.149697      1.5962551     -1.4642086      18329.639    
    880000   1.1552869      0.0023323615   0.0056286005   20.975306      19.259705      1.715601      -1.3614486      18173.077    
    881000   1.0810205      0.0023323615  -0.0025055296   20.501031      18.895715      1.6053155     -1.6414019      18147.803    
    882000   0.95694851     0.0023323615   0.00063544929  20.637175      19.216106      1.4210685     -1.4517497      18092.83     
    883000   1.0495858      0.0023323615   0.00025914486  20.462379      18.903745      1.5586348     -1.5943906      18139.06     
    884000   0.93869988     0.0023323615  -0.00030598226  20.264952      18.870983      1.3939693     -1.7146051      18218.856    
    885000   0.98667567     0.0023323615   0.0015687421   20.403492      18.938279      1.4652134     -1.5570671      18220.629    
    886000   0.94489258     0.0023323615   0.0010481024   20.394497      18.991332      1.4031655     -1.4463714      18320.223    
    887000   1.1767997      0.0023323615  -0.0010894109   20.77215       19.024602      1.7475476     -1.4649667      18417.797    
    888000   1.0227694      0.0023323615  -0.0054201062   20.479659      18.960847      1.5188125     -1.5893489      18245.249    
    889000   1.0653685      0.0023323615   0.00038527925  20.661371      19.079299      1.5820722     -1.4342792      18224.501    
    890000   1.0068612      0.0023323615  -0.00041250979  20.869431      19.374243      1.4951888     -1.2518725      18342.591    
    891000   0.97984093     0.0023323615  -0.0019798446   20.552586      19.097522      1.4550638     -1.393367       18512.138    
    892000   1.0124067      0.0023323615  -0.0018586908   20.637966      19.134542      1.5034239     -1.391242       18430.125    
    893000   1.0811735      0.0023323615  -0.0025361658   20.763206      19.157663      1.6055427     -1.3044562      18492.955    
    894000   1.1256373      0.0023323615   0.00079775842  20.687593      19.016022      1.6715713     -1.4217219      18309.982    
    895000   1.0831503      0.0023323615   0.0036231228   20.634714      19.026235      1.6084782     -1.4598919      18225.16     
    896000   1.1316167      0.0023323615  -0.00069366362  20.705377      19.024926      1.6804507     -1.4121838      18164.329    
    897000   0.98427269     0.0023323615   0.003079164    20.838356      19.376711      1.4616449     -1.1392258      18216.276    
    898000   1.1083295      0.0023323615   0.004047366    20.569445      18.923575      1.6458694     -1.5293736      18189.761    
    899000   1.1478981      0.0023323615  -0.0034551285   20.786842      19.082213      1.7046287     -1.4019695      18228.009    
    900000   0.98151452     0.0023323615   0.002333967    20.652658      19.195109      1.4575491     -1.3680707      18190.849    
    901000   1.0420498      0.0023323615  -0.0040998938   20.656739      19.109295      1.547444      -1.4532051      18088.374    
    902000   0.94859943     0.0023323615   0.00055297945  20.375501      18.96683       1.4086701     -1.5141706      18274.809    
    903000   0.93075485     0.0023323615  -0.002456499    20.597216      19.215046      1.382171      -1.3193375      18079.891    
    904000   0.94980397     0.0023323615   0.0037096966   20.379225      18.968766      1.4104589     -1.5260371      18246.69     
    905000   0.96780571     0.0023323615  -0.0039352393   20.620855      19.183664      1.4371915     -1.3762066      18176.449    
    906000   0.97890216     0.0023323615   0.002061955    20.720537      19.266868      1.4536697     -1.2710941      18318.149    
    907000   0.96920225     0.0023323615  -0.00013828558  20.574815      19.135549      1.4392653     -1.3384244      18254.194    
    908000   0.90452633     0.0023323615   0.0052583045   20.444453      19.101231      1.3432216     -1.3849818      18242.171    
    909000   0.96567253     0.0023323615   0.00030929652  20.400939      18.966915      1.4340237     -1.5264329      18247.737    
    910000   0.95320876     0.0023323615  -0.0010230552   20.585247      19.169732      1.415515      -1.2851018      18267.13     
    911000   0.9198723      0.0023323615   0.0017828311   20.46544       19.099429      1.3660104     -1.4730117      18300.237    
    912000   0.88438628     0.0023323615  -0.0007290144   20.24719       18.933876      1.3133136     -1.6264777      18223.956    
    913000   0.9498185      0.0023323615   0.0025861462   20.372708      18.962227      1.4104805     -1.6130618      18148.901    
    914000   1.1317986      0.0023323615   0.0012658046   20.714212      19.033491      1.6807209     -1.4816061      18092.778    
    915000   0.93336825     0.0023323615  -0.0010681723   20.523729      19.137677      1.3860519     -1.3997827      18117.293    
    916000   1.0734134      0.0023323615   0.0010274209   20.519187      18.925168      1.594019      -1.5302488      18092.804    
    917000   1.2486254      0.0023323615   0.0023889982   20.936461      19.082253      1.8542087     -1.5134184      18210.23     
    918000   1.0621615      0.0023323615   0.00053155714  20.5613        18.983991      1.5773098     -1.5940726      18311.121    
    919000   1.1282833      0.0023323615   0.0031120686   20.818038      19.142537      1.6755007     -1.4480347      18328.451    
    920000   1.1462889      0.0023323615   0.0015022524   20.857981      19.155742      1.7022391     -1.3389565      18456.697    
    921000   0.96576302     0.0023323615   0.0018666913   20.666666      19.232508      1.4341581     -1.3178168      18366.511    
    922000   0.85151991     0.0023323615   0.0046330382   20.436941      19.172434      1.2645071     -1.2771792      18360.295    
    923000   1.0057734      0.0023323615  -0.0011510383   20.424488      18.930915      1.4935735     -1.5309438      18330.945    
    924000   1.0319494      0.0023323615   0.00068997011  20.676623      19.144178      1.5324448     -1.3874562      18368.147    
    925000   0.90880586     0.0023323615  -0.0025082598   20.826385      19.476808      1.3495767     -1.1679378      18430.19     
    926000   1.0557092      0.0023323615   0.0020226416   20.617608      19.04988       1.5677282     -1.4566587      18495.539    
    927000   0.92020799     0.0023323615  -0.0015821314   20.461074      19.094565      1.3665089     -1.2968517      18239.961    
    928000   0.8794851      0.0023323615  -0.0058552737   20.594961      19.288926      1.3060354     -1.3178902      18306.933    
    929000   0.90391148     0.0023323615   0.00042983102  20.467238      19.12493       1.3423085     -1.4191871      18315.069    
    930000   0.97686269     0.0023323615  -0.00031033055  20.553146      19.102505      1.4506411     -1.3923363      18148.535    
    931000   0.92108584     0.0023323615   0.0012542934   20.410758      19.042946      1.3678125     -1.4249309      18439.236    
    932000   0.98728874     0.0023323615   0.0021534093   20.393812      18.927688      1.4661238     -1.5565747      18309.334    
    933000   1.1133652      0.0023323615  -0.0020082434   20.995553      19.342206      1.6533473     -1.1892676      18519.358    
    934000   1.1877056      0.0023323615  -0.00063937695  21.215157      19.451414      1.7637429     -1.1283564      18777.381    
    935000   0.97028999     0.0023323615   0.0018378227   20.643714      19.202833      1.4408806     -1.2025407      18432.293    
    936000   1.1129991      0.0023323615  -5.213962e-05   20.995619      19.342815      1.6528037     -1.2051374      18421.809    
    937000   1.0948667      0.0023323615   0.003757477    20.680666      19.054789      1.625877      -1.4107659      18292.416    
    938000   1.0417278      0.0023323615  -0.00047778535  20.770632      19.223667      1.5469657     -1.2788531      18391.307    
    939000   1.0174694      0.0023323615   0.0030100389   20.672618      19.161676      1.510942      -1.2846122      18701.969    
    940000   0.99066909     0.0023323615  -0.00014947118  20.702668      19.231525      1.4711436     -1.1908702      18832.618    
    941000   0.94324715     0.0023323615  -7.2986839e-05  20.527047      19.126325      1.400722      -1.2980647      18498.107    
    942000   0.98453649     0.0023323615   6.1454554e-06  20.485247      19.02321       1.4620367     -1.4358313      18259.982    
    943000   1.0650647      0.0023323615   0.0011970473   20.59145       19.009829      1.581621      -1.4518465      18338.129    
    944000   1.0202694      0.0023323615   0.0045286916   20.685266      19.170166      1.5151        -1.3725232      18497.595    
    945000   1.0450103      0.0023323615   0.0011518146   20.718293      19.166453      1.5518402     -1.2441608      18585.387    
    946000   1.0928394      0.0023323615   0.0035008997   20.889028      19.266161      1.6228665     -1.2558353      18582.622    
    947000   1.1350585      0.0023323615  -0.0010953855   21.058396      19.372834      1.6855619     -1.1842817      18797.418    
    948000   0.91489372     0.0023323615  -0.0053179489   20.578464      19.219847      1.3586172     -1.2841107      18713.929    
    949000   1.0419561      0.0023323615  -0.0012496322   20.790427      19.243122      1.5473048     -1.3773326      18535.023    
    950000   0.90206013     0.0023323615  -0.00029846902  20.441463      19.101904      1.3395593     -1.3753026      18333.07     
    951000   1.0136143      0.0023323615   0.0012240313   20.507857      19.00264       1.5052172     -1.4587691      18375.583    
    952000   1.0472366      0.0023323615  -0.0039469675   20.5876        19.032454      1.5551463     -1.4976131      18315.032    
    953000   1.1142972      0.0023323615   0.0024380605   20.450383      18.795652      1.6547314     -1.6539646      18326.112    
    954000   0.87786549     0.0023323615  -0.0053804624   20.228773      18.925143      1.3036303     -1.5735457      18263.42     
    955000   1.0134595      0.0023323615  -0.0016971229   20.433521      18.928533      1.5049873     -1.5623331      18074.064    
    956000   1.0357781      0.0023323615  -0.0044491538   20.444363      18.906232      1.5381304     -1.7069577      18252.222    
    957000   0.83782029     0.0023323615   0.00013936566  20.162173      18.91801       1.2441631     -1.5328059      18186.951    
    958000   1.1197827      0.0023323615   0.00032955084  20.583372      18.920495      1.6628773     -1.6216904      18267.321    
    959000   0.83253313     0.0023323615   0.0020626173   19.970932      18.73462       1.2363117     -1.5983102      18050.207    
    960000   0.97687206     0.0023323615  -0.00094878391  20.248102      18.797447      1.450655      -1.6786055      18106.664    
    961000   1.1158989      0.0023323615  -0.0021939395   20.458914      18.801804      1.6571099     -1.6799441      18355.251    
    962000   1.1096886      0.0023323615  -0.0013526299   20.392845      18.744958      1.6478876     -1.6832837      18073.229    
    963000   1.0435805      0.0023323615  -0.0036954806   20.717282      19.167565      1.5497171     -1.5363599      18093.889    
    964000   0.95613248     0.0023323615   0.0005822315   20.36411       18.944253      1.4198567     -1.4975328      18213.132    
    965000   1.050054       0.0023323615   0.00056304108  20.354264      18.794934      1.5593302     -1.694812       18244.662    
    966000   1.1277237      0.0023323615  -0.0031446869   20.84142       19.16675       1.6746698     -1.4703694      18136.98     
    967000   0.93953173     0.0023323615  -0.0018135164   20.420029      19.024824      1.3952046     -1.3726746      18133.774    
    968000   1.0143014      0.0023323615  -0.00057163328  20.34641       18.840172      1.5062377     -1.6145874      18231.279    
    969000   0.980292       0.0023323615  -0.00052425904  20.50619       19.050456      1.4557336     -1.4740527      18276.61     
    970000   0.98843198     0.0023323615   0.0031058185   20.823806      19.355984      1.4678215     -1.2203533      18445.472    
    971000   0.97722801     0.0023323615   0.00084991349  20.948404      19.49722       1.4511836     -1.2321439      18460.374    
    972000   0.96236292     0.0023323615  -0.0011532364   20.527258      19.098149      1.4291089     -1.293286       18443.206    
    973000   0.9868837      0.0023323615   0.00055092979  20.313489      18.847966      1.4655223     -1.6605022      18252.562    
    974000   1.0385081      0.0023323615  -0.0018453753   20.492593      18.950408      1.5421845     -1.504061       18302.935    
    975000   0.91476717     0.0023323615   0.0006251358   20.540221      19.181791      1.3584292     -1.3183897      18228.765    
    976000   0.95811982     0.0023323615  -0.0027802211   20.560007      19.137199      1.4228079     -1.4009823      18301.777    
    977000   1.0629156      0.0023323615   0.0037132872   20.690854      19.112425      1.5784296     -1.4590227      18356.25     
    978000   1.0744945      0.0023323615   0.00039590298  20.719555      19.123931      1.5956243     -1.3966317      18629.848    
    979000   1.0351149      0.0023323615   0.0041942809   20.706458      19.169313      1.5371456     -1.4164316      18630.6      
    980000   1.0863087      0.0023323615   0.0032758212   20.756715      19.143547      1.6131684     -1.3669765      18594.081    
    981000   0.98530399     0.0023323615  -0.001166589    20.467159      19.003982      1.4631764     -1.5238542      18489.838    
    982000   1.1308698      0.0023323615  -6.7701236e-06  20.746277      19.066935      1.6793417     -1.5106332      18296.614    
    983000   0.98952156     0.0023323615  -0.0027395465   20.648942      19.179503      1.4694395     -1.4080975      18576.356    
    984000   0.89436        0.0023323615   0.0018864621   20.158881      18.830757      1.3281246     -1.6540961      18470.304    
    985000   0.97787692     0.0023323615  -0.0017055552   20.614707      19.162559      1.4521472     -1.302799       18250.593    
    986000   0.96867163     0.0023323615  -0.0024902196   20.748348      19.30987       1.4384774     -1.2546488      18626.629    
    987000   0.94276691     0.0023323615  -0.0023212686   20.52935       19.129341      1.4000089     -1.3982664      18270.848    
    988000   0.92305196     0.0023323615  -0.001768652    20.663214      19.292482      1.3707322     -1.249556       18444.037    
    989000   0.91599134     0.0023323615  -0.0036769048   20.255315      18.895068      1.3602471     -1.6716126      18281.557    
    990000   1.0389737      0.0023323615  -0.00059096262  20.774694      19.231818      1.5428759     -1.2266305      18421.333    
    991000   0.99875363     0.0023323615  -0.00015407854  20.696231      19.213082      1.4831491     -1.2338231      18681.81     
    992000   1.0242122      0.0023323615  -0.00016663959  20.570431      19.049475      1.5209551     -1.4620407      18483.613    
    993000   1.1836751      0.0023323615   0.00038965869  20.800703      19.042946      1.7577575     -1.4041261      18297.919    
    994000   0.8599727      0.0023323615  -0.0035550732   20.311053      19.033994      1.2770595     -1.471096       18239.847    
    995000   0.93548632     0.0023323615  -0.0020226781   20.472453      19.083256      1.3891972     -1.5495116      18247.204    
    996000   0.97397102     0.0023323615   0.00024091348  20.501105      19.054758      1.446347      -1.3024796      18347.851    
    997000   1.104972       0.0023323615  -0.00013424955  20.734077      19.093194      1.6408834     -1.5556548      18375.049    
    998000   0.98709849     0.0023323615   0.00053834168  20.558922      19.093081      1.4658413     -1.347095       18300.422    
    999000   0.98399541     0.0023323615  -0.00059584352  20.351138      18.889905      1.4612332     -1.57909        18186.547    
   1000000   0.86023811     0.0023323615  -0.0048052232   20.257511      18.980058      1.2774536     -1.4920357      18138.908    
Loop time of 54.1734 on 1 procs for 1000000 steps with 100 atoms

Performance: 7974398.841 tau/day, 18459.257 timesteps/s
99.4% CPU use with 1 MPI tasks x 1 OpenMP threads

MPI task timing breakdown:
Section |  min time  |  avg time  |  max time  |%varavg| %total
---------------------------------------------------------------
Pair    | 45.222     | 45.222     | 45.222     |   0.0 | 83.48
Bond    | 1.2649     | 1.2649     | 1.2649     |   0.0 |  2.34
Neigh   | 3.7935     | 3.7935     | 3.7935     |   0.0 |  7.00
Comm    | 1.3745     | 1.3745     | 1.3745     |   0.0 |  2.54
Output  | 0.21047    | 0.21047    | 0.21047    |   0.0 |  0.39
Modify  | 1.9518     | 1.9518     | 1.9518     |   0.0 |  3.60
Other   |            | 0.3558     |            |       |  0.66

Nlocal:            100 ave         100 max         100 min
Histogram: 1 0 0 0 0 0 0 0 0 0
Nghost:            300 ave         300 max         300 min
Histogram: 1 0 0 0 0 0 0 0 0 0
Neighs:           4851 ave        4851 max        4851 min
Histogram: 1 0 0 0 0 0 0 0 0 0

Total # of neighbors = 4851
Ave neighs/atom = 48.51
Ave special neighs/atom = 1.98
Neighbor list builds = 97877
Dangerous builds = 79866

write_data      ${outputfile_assembled} nofix nocoeff
write_data      7_assembled.data nofix nocoeff
System init for write_data ...
Generated 0 of 6 mixed pair_coeff terms from geometric mixing rule

Total wall time: 0:00:55
