LAMMPS (23 Jun 2022 - Update 1)
OMP_NUM_THREADS environment is not set. Defaulting to 1 thread. (src/comm.cpp:98)
  using 1 OpenMP thread(s) per MPI task


variable        runtime equal 1000000
variable		subsample_rate equal 1000

variable		outputfile_created string '3_created.data'
variable		outputfile_relaxed string '5_relaxed.data'
variable		outputfile_selfasb string '6_a_self_assemble.lammpstrj'
variable		outputfile_trajlin string '6_b_trajlin.data'
variable		outputfile_assembled string '7_assembled.data'

units           lj
atom_style      full
dimension       3
boundary        p p p
timestep        0.005

read_data       ${outputfile_created}
read_data       3_created.data
Reading data file ...
  orthogonal box = (0 0 0) to (35 35 35)
  1 by 1 by 1 MPI processor grid
  reading atoms ...
  100 atoms
  reading velocities ...
  100 velocities
  scanning bonds ...
  1 = max bonds/atom
  reading bonds ...
  99 bonds
Finding 1-2 1-3 1-4 neighbors ...
  special bond factors lj:    0        0        0       
  special bond factors coul:  0        0        0       
     2 = max # of 1-2 neighbors
     2 = max # of 1-3 neighbors
     4 = max # of 1-4 neighbors
     6 = max # of special neighbors
  special bonds CPU = 0.000 seconds
  read_data CPU = 0.021 seconds

bond_style      fene
bond_coeff      * 30.0 1.5 1.0 1.0
special_bonds   fene
Finding 1-2 1-3 1-4 neighbors ...
  special bond factors lj:    0        1        1       
  special bond factors coul:  0        1        1       
     2 = max # of 1-2 neighbors
     6 = max # of special neighbors
  special bonds CPU = 0.000 seconds

variable        Temp equal 1.0
variable        velSeed equal 926458

velocity        all create ${Temp} ${velSeed}
velocity        all create 1 ${velSeed}
velocity        all create 1 926458

### Output
thermo_style    custom step temp density press etotal pe ke epair spcpu
thermo          1000

###########################################################################
# Soft relaxation (to remove overlaps of particles)
######################################################################

pair_style      soft 1.0
pair_coeff      * * 0.0
variable        prefactor equal ramp(0,300)
fix             rampSoft all adapt 1 pair soft a * * v_prefactor

minimize        0.0 1.0e-8 1000 100000
WARNING: Using 'neigh_modify every 1 delay 0 check yes' setting during minimization (src/min.cpp:187)
Generated 0 of 6 mixed pair_coeff terms from geometric mixing rule
Neighbor list info ...
  update every 1 steps, delay 0 steps, check yes
  max neighbors/atom: 2000, page size: 100000
  master list distance cutoff = 1.3
  ghost atom cutoff = 1.3
  binsize = 0.65, bins = 54 54 54
  1 neighbor lists, perpetual/occasional/extra = 1 0 0
  (1) pair soft, perpetual
      attributes: half, newton on
      pair build: half/bin/newton
      stencil: half/bin/3d
      bin: standard
WARNING: Communication cutoff 1.3 is shorter than a bond length based estimate of 1.7550000000000001. This may lead to errors. (src/comm.cpp:727)
Per MPI rank memory allocation (min/avg/max) = 8.346 | 8.346 | 8.346 Mbytes
   Step          Temp         Density         Press          TotEng         PotEng         KinEng         E_pair         S/CPU     
         0   1              0.0023323615  -0.0039617958   21.524174      20.039174      1.485          0              0            
       362   1              0.0023323615   0.0023090379   21.485548      20.000548      1.485          0              69414.536    
Loop time of 0.0052178 on 1 procs for 362 steps with 100 atoms

97.9% CPU use with 1 MPI tasks x 1 OpenMP threads

Minimization stats:
  Stopping criterion = force tolerance
  Energy initial, next-to-last, final = 
      20.0391741078675   20.0005480767337   20.0005480767337
  Force two-norm initial, final = 11.878422 7.9509778e-09
  Force max component initial, final = 6.6117807 1.3572772e-09
  Final line search alpha, max atom move = 1 1.3572772e-09
  Iterations, force evaluations = 362 738

MPI task timing breakdown:
Section |  min time  |  avg time  |  max time  |%varavg| %total
---------------------------------------------------------------
Pair    | 0.00021567 | 0.00021567 | 0.00021567 |   0.0 |  4.13
Bond    | 0.0023588  | 0.0023588  | 0.0023588  |   0.0 | 45.21
Neigh   | 0.0014759  | 0.0014759  | 0.0014759  |   0.0 | 28.29
Comm    | 0.00018192 | 0.00018192 | 0.00018192 |   0.0 |  3.49
Output  | 0          | 0          | 0          |   0.0 |  0.00
Modify  | 0          | 0          | 0          |   0.0 |  0.00
Other   |            | 0.0009855  |            |       | 18.89

Nlocal:            100 ave         100 max         100 min
Histogram: 1 0 0 0 0 0 0 0 0 0
Nghost:             20 ave          20 max          20 min
Histogram: 1 0 0 0 0 0 0 0 0 0
Neighs:              0 ave           0 max           0 min
Histogram: 1 0 0 0 0 0 0 0 0 0

Total # of neighbors = 0
Ave neighs/atom = 0
Ave special neighs/atom = 1.98
Neighbor list builds = 17
Dangerous builds = 0

fix             nvtSoft all nvt temp ${Temp} ${Temp} 0.5
fix             nvtSoft all nvt temp 1 ${Temp} 0.5
fix             nvtSoft all nvt temp 1 1 0.5
run             100000
Generated 0 of 6 mixed pair_coeff terms from geometric mixing rule
WARNING: Communication cutoff 1.3 is shorter than a bond length based estimate of 1.7550000000000001. This may lead to errors. (src/comm.cpp:727)
Per MPI rank memory allocation (min/avg/max) = 7.221 | 7.221 | 7.221 Mbytes
   Step          Temp         Density         Press          TotEng         PotEng         KinEng         E_pair         S/CPU     
       362   1              0.0023323615   0.0023090379   21.485548      20.000548      1.485          0              0            
      1000   0.90989032     0.0023323615  -0.0021940042   21.776974      20.425787      1.3511871      0.00036425437  78869.013    
      2000   0.86546688     0.0023323615   0.0034714157   21.677128      20.39191       1.2852183      0.0025814786   78130.353    
      3000   0.98199538     0.0023323615   0.0028144228   21.866132      20.407869      1.4582631      0.0011756043   74638.825    
      4000   1.004495       0.0023323615  -0.0014058211   21.945624      20.453949      1.4916751      0.011986179    74801.259    
      5000   1.1222705      0.0023323615   0.0044495116   21.986385      20.319813      1.6665718      0.0050317639   74943.524    
      6000   1.0538243      0.0023323615   0.0023957538   21.985713      20.420784      1.564929       0.012100514    74386.342    
      7000   1.0210598      0.0023323615  -0.00038820026  21.904665      20.388391      1.5162738      0              77096.104    
      8000   0.94819751     0.0023323615   0.0024943091   21.747889      20.339816      1.4080733      0              77171.808    
      9000   0.92364502     0.0023323615   0.0020053029   21.724166      20.352554      1.3716129      1.7780894e-05  76349.096    
     10000   0.86685188     0.0023323615   0.00078277366  21.644879      20.357604      1.287275       0.0098636418   76042.042    
     11000   1.0057103      0.0023323615   0.00010113276  21.8558        20.362321      1.4934798      0.020705341    75874.693    
     12000   0.97901664     0.0023323615  -0.0026996968   21.871206      20.417366      1.4538397      0.0052928539   75833.651    
     13000   0.97718436     0.0023323615  -6.1641422e-06  21.963706      20.512587      1.4511188      0.025022446    75479.878    
     14000   1.0530014      0.0023323615  -0.0009993112   21.947994      20.384287      1.5637071      0.0020860456   72709.78     
     15000   0.99094527     0.0023323615   0.0011068478   21.895146      20.423592      1.4715537      0.0015091113   73630.35     
     16000   0.91285091     0.0023323615  -0.00025424173  21.87524       20.519657      1.3555836      0.0047853639   73799.278    
     17000   0.82806978     0.0023323615  -0.00054698156  21.701984      20.472301      1.2296836      0              73458.891    
     18000   1.043278       0.0023323615  -6.6143919e-05  22.003299      20.454031      1.5492679      0.0034319132   76001.858    
     19000   1.0879249      0.0023323615  -0.0017804642   21.998985      20.383416      1.6155685      0.015376175    75076.67     
     20000   1.1144506      0.0023323615   0.0025198298   22.190904      20.535944      1.6549592      0              76023.445    
     21000   1.0427751      0.0023323615   0.0011345349   22.099492      20.550971      1.548521       0.00040047813  76068.35     
     22000   1.0586695      0.0023323615   0.0017882747   22.05673       20.484606      1.5721242      0              76150.124    
     23000   1.0058426      0.0023323615  -0.0055245362   21.954628      20.460951      1.4936763      0.0027619031   74883.588    
     24000   0.98273442     0.0023323615   0.0015147357   21.862067      20.402707      1.4593606      0              75474.626    
     25000   0.95835343     0.0023323615   0.0017808774   21.937761      20.514606      1.4231548      0.00020839942  73512.293    
     26000   0.93993778     0.0023323615  -0.0021777292   21.884849      20.489042      1.3958076      0.0088889834   75599.424    
     27000   0.9308188      0.0023323615  -0.00011239942  21.842252      20.459986      1.3822659      0.021612409    75029.432    
     28000   1.0149581      0.0023323615   0.0041996387   21.906846      20.399633      1.5072129      0.0064059022   75604.059    
     29000   0.92841138     0.0023323615  -2.5398808e-05  21.987185      20.608494      1.3786909      0.0046112484   75524.771    
     30000   1.021043       0.0023323615   0.001589158    22.097958      20.581709      1.5162489      0.016799508    73039.718    
     31000   1.0465985      0.0023323615  -0.0021744286   22.037917      20.483718      1.5541987      0.0057879149   76271.094    
     32000   0.98907108     0.0023323615  -0.0015558606   22.044089      20.575318      1.4687705      0.009448173    75833.593    
     33000   1.0918536      0.0023323615  -0.0025643847   22.039275      20.417873      1.6214025      0              72691.514    
     34000   0.99801543     0.0023323615   0.0016279766   21.932339      20.450286      1.4820529      0.017384617    77179.497    
     35000   1.0352271      0.0023323615  -0.0052971711   22.076004      20.538692      1.5373122      0.00010473809  75766.191    
     36000   1.1141579      0.0023323615  -0.00093279925  22.222491      20.567966      1.6545245      0.00033678641  76965.55     
     37000   1.0369415      0.0023323615   0.00013065175  22.217841      20.677983      1.5398581      0.013788831    75773.149    
     38000   1.0515596      0.0023323615   0.0021717558   22.070766      20.5092        1.561566       0.0067894678   76687.211    
     39000   1.0238495      0.0023323615   0.00026414509  22.040141      20.519725      1.5204165      0.00044464649  75644.682    
     40000   1.0749111      0.0023323615  -0.0026849368   22.039327      20.443084      1.596243       0.012651334    73211.636    
     41000   0.99070886     0.0023323615  -0.0030385564   22.03241       20.561207      1.4712027      0.00092855646  76060.521    
     42000   0.95315224     0.0023323615   0.0019788197   21.965263      20.549832      1.4154311      0.020233689    75636.317    
     43000   1.0644183      0.0023323615  -0.0011168725   22.287172      20.706511      1.5806611      0.039694129    75472.057    
     44000   1.0253747      0.0023323615  -0.006676522    22.066233      20.543552      1.5226814      0              74677.245    
     45000   0.94179556     0.0023323615  -0.0047206018   21.970644      20.572077      1.3985664      0.019869988    75093.335    
     46000   1.0083495      0.0023323615  -0.0017646918   21.972114      20.474715      1.497399       0.00026040605  75295.053    
     47000   0.98767959     0.0023323615  -0.00080218158  22.091674      20.62497       1.4667042      0.024266258    75079.725    
     48000   1.1473449      0.0023323615  -0.0025885687   22.080512      20.376705      1.7038072      0.00065962995  73362.517    
     49000   1.0679312      0.0023323615   0.0017688272   21.970482      20.384604      1.5858779      0.014142422    76399.71     
     50000   0.9581935      0.0023323615   0.0014398836   21.955202      20.532284      1.4229173      0.0055011948   76019.388    
     51000   1.0215759      0.0023323615  -0.00093292688  21.934681      20.41764       1.5170402      0              75826.911    
     52000   0.98079591     0.0023323615   0.0040701936   21.977374      20.520892      1.4564819      0.0020862422   76615.636    
     53000   1.0090927      0.0023323615   0.0013324753   22.095438      20.596935      1.4985027      0              75664.01     
     54000   0.97519627     0.0023323615   0.0013260734   22.070151      20.621984      1.4481665      0.026885444    76793.119    
     55000   1.1805087      0.0023323615  -0.001586238    22.424088      20.671033      1.7530554      0.024690954    76321.132    
     56000   0.98387121     0.0023323615   0.0037155145   22.104425      20.643376      1.4610487      0.01435493     73984.066    
     57000   1.0723812      0.0023323615  -0.0037916262   22.122726      20.53024       1.592486       0.013635549    76388.475    
     58000   1.0152349      0.0023323615   0.00021908047  22.082827      20.575203      1.5076238      0.00077375639  75993.409    
     59000   1.1424502      0.0023323615  -0.0052108657   22.30072       20.604182      1.6965385      0.013308184    77127.5      
     60000   1.0359703      0.0023323615  -0.00097887545  22.188218      20.649802      1.538416       0.00011346294  75603.431    
     61000   1.1646839      0.0023323615  -0.002085017    22.239945      20.51039       1.7295556      0.012918477    77720.133    
     62000   1.101836       0.0023323615   0.0010338878   22.171386      20.53516       1.6362265      0.001396566    76344.952    
     63000   0.96616435     0.0023323615   0.00097550571  21.903821      20.469067      1.4347541      0.013027663    77528.401    
     64000   1.0068907      0.0023323615  -0.0020278726   22.061652      20.566419      1.4952327      0.013750276    74047.346    
     65000   0.98723233     0.0023323615   0.0022441476   22.031073      20.565033      1.46604        0.0066686189   76543.539    
     66000   1.0273881      0.0023323615  -0.0003515278   22.183579      20.657908      1.5256713      0              75005.982    
     67000   0.96528212     0.0023323615  -0.00014822656  21.9396        20.506156      1.4334439      0.010365557    77007.833    
     68000   1.069702       0.0023323615   9.4754668e-05  22.081119      20.492611      1.5885075      0.00049153926  74252.153    
     69000   1.1229502      0.0023323615   0.0011504079   22.200329      20.532748      1.6675811      0.0068454249   77012.939    
     70000   1.0062775      0.0023323615  -0.00085311964  22.094021      20.599699      1.4943221      0.013222355    75475.486    
     71000   1.0906935      0.0023323615   0.00015260357  22.145362      20.525682      1.6196798      0.018338513    76057.102    
     72000   1.010401       0.0023323615  -6.0487182e-06  22.154105      20.653659      1.5004455      0.0013793953   73971.068    
     73000   1.1177599      0.0023323615  -0.0034084797   22.254435      20.594562      1.6598735      0.00011231735  77690.431    
     74000   0.9768019      0.0023323615   0.00016143893  22.07312       20.622569      1.4505508      0.0084515956   75633.846    
     75000   1.1360996      0.0023323615   0.002159116    22.161595      20.474487      1.6871079      0.0089909162   76206.461    
     76000   0.97379329     0.0023323615  -0.00068458621  21.988928      20.542845      1.446083       0              75236.03     
     77000   0.94876793     0.0023323615  -0.0016073976   21.923496      20.514575      1.4089204      0.017745108    75511.916    
     78000   0.83947996     0.0023323615  -0.00062768559  21.726727      20.480099      1.2466277      0.0054510099   76235.736    
     79000   1.0090614      0.0023323615  -0.00080262643  22.068192      20.569736      1.4984562      0.00023011166  76796.782    
     80000   1.1217643      0.0023323615  -0.0038177864   22.367902      20.702082      1.66582        0.032902439    76319.035    
     81000   1.0240158      0.0023323615   0.00023547123  22.031597      20.510933      1.5206635      0.0068767308   75668.253    
     82000   1.003236       0.0023323615  -0.0022802982   21.894199      20.404393      1.4898055      0.019136282    74587.791    
     83000   1.0554159      0.0023323615   0.004011718    22.104562      20.537269      1.5672927      0.0080869707   73438.731    
     84000   0.83527346     0.0023323615  -0.0034122221   21.874648      20.634267      1.2403811      0.0030083664   75742.84     
     85000   1.036002       0.0023323615   0.0013573923   21.962923      20.42446       1.5384629      0.015709144    76516.849    
     86000   0.9432002      0.0023323615  -0.0032183248   21.913588      20.512936      1.4006523      0.013730309    76437.265    
     87000   0.95566008     0.0023323615  -0.00049614223  21.91653       20.497375      1.4191552      0.0035862035   75231.044    
     88000   0.93373351     0.0023323615  -0.00097093893  21.870485      20.483891      1.3865943      0.0018212145   75128.884    
     89000   0.9684944      0.0023323615  -0.00047342045  21.973429      20.535215      1.4382142      0.00087524744  74248.619    
     90000   0.98293324     0.0023323615  -0.0032204602   22.050919      20.591263      1.4596559      0.015353933    76650.931    
     91000   1.0832827      0.0023323615   0.0048517083   22.11977       20.511095      1.6086749      0.0052867789   75977.271    
     92000   0.85899662     0.0023323615  -0.0013049519   21.765697      20.490087      1.27561        0.0024124001   76373.458    
     93000   0.96176266     0.0023323615  -4.4223672e-05  21.874222      20.446004      1.4282176      0.0045653365   77359.916    
     94000   0.96019503     0.0023323615   0.00024459347  21.944954      20.519064      1.4258896      3.8053462e-05  76680.084    
     95000   0.94702149     0.0023323615  -0.0033658915   21.86315       20.456823      1.4063269      0              74833.955    
     96000   0.91119348     0.0023323615  -0.0013197298   21.825018      20.471896      1.3531223      0.00043282989  75977.04     
     97000   1.0016687      0.0023323615  -0.0019514304   22.013024      20.525546      1.487478       0.0048369955   75519.569    
     98000   1.02143        0.0023323615  -0.0057874974   22.177965      20.661142      1.5168235      0              74534.765    
     99000   1.032786       0.0023323615   0.0018228259   21.975336      20.441649      1.5336871      7.1595851e-05  77652.714    
    100000   1.0594928      0.0023323615   0.0036169719   22.011024      20.437677      1.5733468      0.00032948157  75818.041    
    100362   1.1904942      0.0023323615  -0.00089755607  22.316856      20.548972      1.7678839      0.00063845255  75399.843    
Loop time of 1.32232 on 1 procs for 100000 steps with 100 atoms

Performance: 32669752.357 tau/day, 75624.427 timesteps/s
99.3% CPU use with 1 MPI tasks x 1 OpenMP threads

MPI task timing breakdown:
Section |  min time  |  avg time  |  max time  |%varavg| %total
---------------------------------------------------------------
Pair    | 0.049448   | 0.049448   | 0.049448   |   0.0 |  3.74
Bond    | 0.1264     | 0.1264     | 0.1264     |   0.0 |  9.56
Neigh   | 0.8065     | 0.8065     | 0.8065     |   0.0 | 60.99
Comm    | 0.055521   | 0.055521   | 0.055521   |   0.0 |  4.20
Output  | 0.0013016  | 0.0013016  | 0.0013016  |   0.0 |  0.10
Modify  | 0.24833    | 0.24833    | 0.24833    |   0.0 | 18.78
Other   |            | 0.03483    |            |       |  2.63

Nlocal:            100 ave         100 max         100 min
Histogram: 1 0 0 0 0 0 0 0 0 0
Nghost:             60 ave          60 max          60 min
Histogram: 1 0 0 0 0 0 0 0 0 0
Neighs:             36 ave          36 max          36 min
Histogram: 1 0 0 0 0 0 0 0 0 0

Total # of neighbors = 36
Ave neighs/atom = 0.36
Ave special neighs/atom = 1.98
Neighbor list builds = 9821
Dangerous builds = 8265
unfix           nvtSoft
unfix           rampSoft
reset_timestep  0

write_data      ${outputfile_relaxed}
write_data      5_relaxed.data
System init for write_data ...
Generated 0 of 6 mixed pair_coeff terms from geometric mixing rule
WARNING: Communication cutoff 1.3 is shorter than a bond length based estimate of 1.7550000000000001. This may lead to errors. (src/comm.cpp:727)
WARNING: Not all mixed pair coeffs generated from mixing. Use write_data with 'pair ij' option to store all pair coeffs. (src/write_data.cpp:309)

###########################################################################
# Full LJ with Coulomb
######################################################################

# Cutoffs and parameters:
# - Values: Marcel Verkade's Bachelor Thesis
# - Mapping to atom groups: Patrick Onck's paper
# - 1: aliphatic, 2: aromatic, 3: anion, 4: cation
# pair_style	lj/cut/coul/cut <lj_cut_global> <coul_cut_global>
# pair_coeff	<type_1>  <type_2>  <eps>  <sigma>  <r_cut_lj>  <r_cut_coul>

# Problem: Onck's model is much more complex, and Marcel has no sigma reported
# Using sigma=1 randomly

variable		glob_ljeps equal 1.0
variable		glob_ljsig 	equal 1.0
variable		glob_coulcut equal 10.0
variable		att_ljcut equal 2.50
variable		rep_ljcut equal 1.12

pair_style		lj/cut/coul/cut 						${att_ljcut} 	${glob_coulcut}
pair_style		lj/cut/coul/cut 						2.5 	${glob_coulcut}
pair_style		lj/cut/coul/cut 						2.5 	10
pair_coeff		1 1 	${glob_ljeps} 	${glob_ljsig}	${att_ljcut} 	${glob_coulcut}
pair_coeff		1 1 	1 	${glob_ljsig}	${att_ljcut} 	${glob_coulcut}
pair_coeff		1 1 	1 	1	${att_ljcut} 	${glob_coulcut}
pair_coeff		1 1 	1 	1	2.5 	${glob_coulcut}
pair_coeff		1 1 	1 	1	2.5 	10
pair_coeff		1 2 	${glob_ljeps} 	${glob_ljsig}	${att_ljcut} 	${glob_coulcut}
pair_coeff		1 2 	1 	${glob_ljsig}	${att_ljcut} 	${glob_coulcut}
pair_coeff		1 2 	1 	1	${att_ljcut} 	${glob_coulcut}
pair_coeff		1 2 	1 	1	2.5 	${glob_coulcut}
pair_coeff		1 2 	1 	1	2.5 	10
pair_coeff		1 3 	${glob_ljeps} 	${glob_ljsig}	${rep_ljcut} 	${glob_coulcut}
pair_coeff		1 3 	1 	${glob_ljsig}	${rep_ljcut} 	${glob_coulcut}
pair_coeff		1 3 	1 	1	${rep_ljcut} 	${glob_coulcut}
pair_coeff		1 3 	1 	1	1.12 	${glob_coulcut}
pair_coeff		1 3 	1 	1	1.12 	10
pair_coeff		1 4 	${glob_ljeps} 	${glob_ljsig}	${rep_ljcut} 	${glob_coulcut}
pair_coeff		1 4 	1 	${glob_ljsig}	${rep_ljcut} 	${glob_coulcut}
pair_coeff		1 4 	1 	1	${rep_ljcut} 	${glob_coulcut}
pair_coeff		1 4 	1 	1	1.12 	${glob_coulcut}
pair_coeff		1 4 	1 	1	1.12 	10
pair_coeff		2 2 	${glob_ljeps} 	${glob_ljsig}	${att_ljcut} 	${glob_coulcut}
pair_coeff		2 2 	1 	${glob_ljsig}	${att_ljcut} 	${glob_coulcut}
pair_coeff		2 2 	1 	1	${att_ljcut} 	${glob_coulcut}
pair_coeff		2 2 	1 	1	2.5 	${glob_coulcut}
pair_coeff		2 2 	1 	1	2.5 	10
pair_coeff		2 3 	${glob_ljeps} 	${glob_ljsig}	${rep_ljcut} 	${glob_coulcut}
pair_coeff		2 3 	1 	${glob_ljsig}	${rep_ljcut} 	${glob_coulcut}
pair_coeff		2 3 	1 	1	${rep_ljcut} 	${glob_coulcut}
pair_coeff		2 3 	1 	1	1.12 	${glob_coulcut}
pair_coeff		2 3 	1 	1	1.12 	10
pair_coeff		2 4 	${glob_ljeps} 	${glob_ljsig}	${att_ljcut} 	${glob_coulcut}
pair_coeff		2 4 	1 	${glob_ljsig}	${att_ljcut} 	${glob_coulcut}
pair_coeff		2 4 	1 	1	${att_ljcut} 	${glob_coulcut}
pair_coeff		2 4 	1 	1	2.5 	${glob_coulcut}
pair_coeff		2 4 	1 	1	2.5 	10
pair_coeff		3 3 	${glob_ljeps} 	${glob_ljsig}	${rep_ljcut} 	${glob_coulcut}
pair_coeff		3 3 	1 	${glob_ljsig}	${rep_ljcut} 	${glob_coulcut}
pair_coeff		3 3 	1 	1	${rep_ljcut} 	${glob_coulcut}
pair_coeff		3 3 	1 	1	1.12 	${glob_coulcut}
pair_coeff		3 3 	1 	1	1.12 	10
pair_coeff		3 4 	${glob_ljeps} 	${glob_ljsig}	${att_ljcut} 	${glob_coulcut}
pair_coeff		3 4 	1 	${glob_ljsig}	${att_ljcut} 	${glob_coulcut}
pair_coeff		3 4 	1 	1	${att_ljcut} 	${glob_coulcut}
pair_coeff		3 4 	1 	1	2.5 	${glob_coulcut}
pair_coeff		3 4 	1 	1	2.5 	10
pair_coeff		4 4 	${glob_ljeps} 	${glob_ljsig}	${rep_ljcut} 	${glob_coulcut}
pair_coeff		4 4 	1 	${glob_ljsig}	${rep_ljcut} 	${glob_coulcut}
pair_coeff		4 4 	1 	1	${rep_ljcut} 	${glob_coulcut}
pair_coeff		4 4 	1 	1	1.12 	${glob_coulcut}
pair_coeff		4 4 	1 	1	1.12 	10


fix             noDriftRot 	all momentum 10 linear 1 1 1 angular
fix             nvt1 		all nvt temp ${Temp} ${Temp} 0.5
fix             nvt1 		all nvt temp 1 ${Temp} 0.5
fix             nvt1 		all nvt temp 1 1 0.5

# dump          assemble 	all custom 1000 				${outputfile_selfasb} id type xu yu zu vx vy vz
dump            lindump 	all custom ${subsample_rate} 	${outputfile_trajlin} id type xu yu zu vx vy vz
dump            lindump 	all custom 1000 	${outputfile_trajlin} id type xu yu zu vx vy vz
dump            lindump 	all custom 1000 	6_b_trajlin.data id type xu yu zu vx vy vz

run             ${runtime}
run             1000000
Generated 0 of 6 mixed pair_coeff terms from geometric mixing rule
Neighbor list info ...
  update every 1 steps, delay 10 steps, check yes
  max neighbors/atom: 2000, page size: 100000
  master list distance cutoff = 10.3
  ghost atom cutoff = 10.3
  binsize = 5.15, bins = 7 7 7
  1 neighbor lists, perpetual/occasional/extra = 1 0 0
  (1) pair lj/cut/coul/cut, perpetual
      attributes: half, newton on
      pair build: half/bin/newton
      stencil: half/bin/3d
      bin: standard
Per MPI rank memory allocation (min/avg/max) = 7.712 | 7.712 | 7.712 Mbytes
   Step          Temp         Density         Press          TotEng         PotEng         KinEng         E_pair         S/CPU     
         0   1.1904942      0.0023323615  -0.0015082059   21.840498      20.072614      1.7678839     -0.47571979     0            
      1000   0.92959448     0.0023323615   0.00060918784  20.935892      19.555444      1.3804478     -0.87877315     32728.48     
      2000   0.8415391      0.0023323615  -0.0053414927   20.760943      19.511257      1.2496856     -0.8970743      29665.422    
      3000   1.0209018      0.0023323615  -0.00010184697  20.67446       19.158421      1.5160392     -1.2171886      23959.984    
      4000   1.0122409      0.0023323615   0.0020372722   20.74831       19.245132      1.5031777     -1.2158497      19837.342    
      5000   1.1371284      0.0023323615   0.00017255757  20.862927      19.174291      1.6886357     -1.421696       18428.672    
      6000   1.0836795      0.0023323615  -0.0048988218   20.667209      19.057945      1.6092641     -1.456208       18674.82     
      7000   1.0861387      0.0023323615  -0.0011577728   20.985525      19.372609      1.612916      -1.2553787      18493.473    
      8000   1.0160486      0.0023323615   0.0022339469   20.596346      19.087514      1.5088322     -1.4223355      18516.06     
      9000   1.0790296      0.0023323615  -0.0014404176   20.676335      19.073976      1.6023589     -1.5229397      18401.031    
     10000   0.96043387     0.0023323615   0.0018434762   20.683391      19.257147      1.4262443     -1.3120043      18413.058    
     11000   0.96129776     0.0023323615  -0.0027241936   20.699247      19.27172       1.4275272     -1.2462881      18548.018    
     12000   1.0556088      0.0023323615   0.0014481579   20.547368      18.979789      1.5675791     -1.5709529      18515.631    
     13000   1.0715126      0.0023323615   0.00098967921  20.656365      19.065169      1.5911962     -1.393219       18533.051    
     14000   0.93848898     0.0023323615   0.00084845128  20.379065      18.985409      1.3936561     -1.4613057      18512.808    
     15000   1.0527598      0.0023323615  -0.0014130596   20.858055      19.294706      1.5633482     -1.2462272      18547.618    
     16000   1.0543275      0.0023323615   6.374759e-05   20.785491      19.219814      1.5656764     -1.3314566      18414.318    
     17000   0.98128547     0.0023323615   0.00085517609  20.822153      19.364944      1.4572089     -1.3768142      18435.892    
     18000   1.0722096      0.0023323615  -0.002403135    20.665422      19.073191      1.5922313     -1.5116552      18469.508    
     19000   1.0864062      0.0023323615  -0.0002252005   20.589384      18.976071      1.6133131     -1.595267       18398.731    
     20000   1.0244846      0.0023323615   0.0014429956   20.528321      19.006961      1.5213596     -1.5733903      18339.19     
     21000   1.0978369      0.0023323615   0.0044371354   20.691431      19.061144      1.6302878     -1.461346       18406.633    
     22000   1.0329924      0.0023323615  -0.0032432051   20.691515      19.157521      1.5339937     -1.4457098      18395.168    
     23000   1.0590273      0.0023323615  -0.0011948645   20.605216      19.032561      1.5726556     -1.6031752      18540.445    
     24000   0.896258       0.0023323615   0.00031427071  20.37995       19.049006      1.3309431     -1.5412233      18337.775    
     25000   1.0817186      0.0023323615  -0.0017063323   20.686307      19.079955      1.6063521     -1.5020486      18497.438    
     26000   1.0277881      0.0023323615   0.00073269667  20.517232      18.990967      1.5262654     -1.5275887      18592.654    
     27000   0.9572651      0.0023323615  -0.00066335582  20.488288      19.066749      1.4215387     -1.458106       18550.038    
     28000   0.95877149     0.0023323615  -0.0013469346   20.415876      18.992101      1.4237757     -1.4023297      18413.442    
     29000   1.0825778      0.0023323615  -0.0022886337   20.940159      19.332531      1.607628      -1.2095817      18447.777    
     30000   1.0021299      0.0023323615   0.003365502    20.32246       18.834297      1.4881629     -1.5895192      18427.393    
     31000   1.0026633      0.0023323615   0.00068349833  20.677915      19.18896       1.488955      -1.3589411      18545.079    
     32000   0.9160109      0.0023323615   0.0050741468   20.179195      18.818919      1.3602762     -1.6278921      18551.89     
     33000   1.0492275      0.0023323615  -0.0026411705   20.522605      18.964503      1.5581028     -1.5489742      18411.176    
     34000   1.0246758      0.0023323615  -0.0014112959   20.62783       19.106187      1.5216436     -1.376418       18396.263    
     35000   0.96519885     0.0023323615   0.0018868125   20.589142      19.155822      1.4333203     -1.3498296      18426.583    
     36000   1.0710612      0.0023323615  -0.0016463563   20.505063      18.914538      1.5905258     -1.691454       18496.818    
     37000   0.9278475      0.0023323615  -0.0025628547   20.634749      19.256896      1.3778535     -1.3654406      18418.96     
     38000   1.1729858      0.0023323615   0.0010235123   20.773008      19.031124      1.7418839     -1.4193324      18486.633    
     39000   1.0317227      0.0023323615   0.0019625661   20.837171      19.305063      1.5321082     -1.2896709      18524.287    
     40000   0.93269164     0.0023323615  -0.00045061067  20.557271      19.172224      1.3850471     -1.4045001      18459.763    
     41000   1.0911837      0.0023323615  -0.0018872468   20.741833      19.121425      1.6204078     -1.3028974      18445.697    
     42000   0.98151212     0.0023323615  -0.00090870443  20.563364      19.105818      1.4575455     -1.4461285      18572.011    
     43000   0.91964403     0.0023323615   0.0035445348   20.341979      18.976308      1.3656714     -1.4490837      18542.825    
     44000   1.1146531      0.0023323615  -0.0011555299   20.662553      19.007294      1.6552598     -1.5024356      18515.559    
     45000   0.94011718     0.0023323615  -0.00026737554  20.399628      19.003554      1.396074      -1.4278135      18608.46     
     46000   1.0103549      0.0023323615   0.0032486719   20.386127      18.88575       1.5003771     -1.6605897      18314.205    
     47000   0.98815824     0.0023323615  -0.00014581921  20.525221      19.057806      1.467415      -1.4267843      18261.031    
     48000   1.0253737      0.0023323615  -0.0020416705   20.404132      18.881452      1.52268       -1.6881299      18196.835    
     49000   0.83240935     0.0023323615   0.00086222034  20.591046      19.354918      1.2361279     -1.2591802      18264.653    
     50000   0.90991954     0.0023323615   0.0024137105   20.113402      18.762171      1.3512305     -1.7534576      18384.339    
     51000   0.99307106     0.0023323615   0.0047126431   20.560814      19.086103      1.4747105     -1.5467097      18292.781    
     52000   0.92056136     0.0023323615   0.0011784835   20.368768      19.001734      1.3670336     -1.5827473      18326.032    
     53000   1.0729262      0.0023323615  -0.0040467524   20.559636      18.96634       1.5932954     -1.5436507      18349.328    
     54000   0.9391278      0.0023323615   0.0043681589   20.444188      19.049583      1.3946048     -1.5327211      18334.188    
     55000   1.0702032      0.0023323615  -0.00092254131  20.614659      19.025407      1.5892518     -1.6490919      18335.589    
     56000   0.91010577     0.0023323615  -0.0035948532   20.444444      19.092937      1.3515071     -1.3407988      18409.855    
     57000   0.95430672     0.0023323615  -0.0021366444   20.553929      19.136784      1.4171455     -1.290514       18461.357    
     58000   1.035526       0.0023323615  -0.00094917053  20.715606      19.17785       1.5377561     -1.3338886      18539.464    
     59000   0.85367173     0.0023323615   0.0025126217   20.387226      19.119523      1.2677025     -1.3698965      18413.73     
     60000   0.98433487     0.0023323615  -0.00042000927  20.421823      18.960086      1.4617373     -1.6073803      18382.351    
     61000   1.1063915      0.0023323615   0.0017105898   20.822026      19.179035      1.6429913     -1.3105808      18405.724    
     62000   0.9854533      0.0023323615   6.0392735e-05  20.53478       19.071381      1.4633981     -1.5457044      18549.104    
     63000   1.1074534      0.0023323615  -0.0015783227   20.796759      19.152191      1.6445684     -1.3072216      18557.474    
     64000   0.9894928      0.0023323615   0.0042768041   20.40266       18.933263      1.4693968     -1.5375831      18457.397    
     65000   0.96915411     0.0023323615   0.0018879217   20.362273      18.92308       1.4391939     -1.6113403      18367.603    
     66000   1.0561231      0.0023323615   0.0024311013   20.700767      19.132424      1.5683428     -1.2649327      18495.793    
     67000   0.88290016     0.0023323615   0.0016724461   20.221706      18.910599      1.3111067     -1.5008544      18524.51     
     68000   0.87535112     0.0023323615   0.002149956    20.257705      18.957808      1.2998964     -1.4379786      18347.854    
     69000   1.1173231      0.0023323615  -0.00098483652  20.889229      19.230004      1.6592249     -1.3033103      18453.067    
     70000   0.95891146     0.0023323615   0.0029025959   20.453581      19.029598      1.4239835     -1.4692499      18508.928    
     71000   1.2357933      0.0023323615   0.0030060631   20.897993      19.06284       1.835153      -1.5605441      18402.965    
     72000   1.0972678      0.0023323615  -0.0045576783   20.764745      19.135303      1.6294426     -1.4824599      18512.897    
     73000   1.0549306      0.0023323615   0.0034771578   20.543863      18.977291      1.5665719     -1.4892927      18521.035    
     74000   0.95156584     0.0023323615  -0.00022320253  20.224154      18.811079      1.4130753     -1.7933238      18559.758    
     75000   1.0529375      0.0023323615   0.0009294134   20.451011      18.887399      1.5636122     -1.5905536      18504.492    
     76000   1.1243258      0.0023323615  -0.0011741755   20.555671      18.886047      1.6696238     -1.6119466      18521.736    
     77000   0.94958047     0.0023323615  -0.0045351134   20.657269      19.247142      1.410127      -1.2963159      18567.564    
     78000   0.92758404     0.0023323615   0.0030692658   20.629882      19.25242       1.3774623     -1.347296       18581.426    
     79000   0.90964483     0.0023323615  -0.0051016587   20.182104      18.831281      1.3508226     -1.6220335      18391.948    
     80000   0.99957213     0.0023323615  -0.0017496829   20.696368      19.212003      1.4843646     -1.3152888      18528.052    
     81000   0.93523929     0.0023323615   0.003410312    20.462017      19.073186      1.3888303     -1.4537251      18446.093    
     82000   1.0805456      0.0023323615  -0.0010564104   20.805051      19.200441      1.6046103     -1.3194845      18374.203    
     83000   0.98757578     0.0023323615  -0.000628929    20.430557      18.964007      1.46655       -1.6217241      18459.141    
     84000   1.0105464      0.0023323615   0.00097580231  20.609458      19.108796      1.5006615     -1.3901182      18355.581    
     85000   0.85582721     0.0023323615   0.0019250216   20.367442      19.096539      1.2709034     -1.4765039      18385.944    
     86000   0.9410273      0.0023323615  -0.00089145999  20.633222      19.235796      1.3974255     -1.2952251      18611.704    
     87000   0.9559879      0.0023323615   0.002256654    20.203932      18.78429       1.419642      -1.7297446      18472.304    
     88000   1.1358724      0.0023323615  -0.0024116696   20.833717      19.146946      1.6867706     -1.3673618      18446.43     
     89000   0.94233155     0.0023323615   0.0001853744   20.418196      19.018834      1.3993623     -1.4783374      18296.651    
     90000   1.1166777      0.0023323615  -0.0011295502   20.906754      19.248488      1.6582664     -1.4866533      18259.194    
     91000   1.0138654      0.0023323615  -0.00044069284  20.469345      18.963755      1.5055901     -1.5446188      18251.575    
     92000   1.1437351      0.0023323615   0.0035480595   20.673469      18.975022      1.6984467     -1.6026313      18230.909    
     93000   1.0755356      0.0023323615  -0.0035588315   20.646905      19.049735      1.5971703     -1.5112542      18337.799    
     94000   0.90772187     0.0023323615   0.0010450391   20.407022      19.059055      1.347967      -1.4847719      18387.99     
     95000   0.98017664     0.0023323615  -0.0002673284   20.530388      19.074826      1.4555623     -1.5419604      18332.262    
     96000   1.0628128      0.0023323615   0.0021657617   20.596456      19.018179      1.578277      -1.4047086      18421.006    
     97000   0.86918558     0.0023323615  -0.0020608027   20.42259       19.13185       1.2907406     -1.4384649      18430.234    
     98000   0.96748229     0.0023323615   0.0013882455   20.598476      19.161764      1.4367112     -1.4096528      18451.586    
     99000   1.0106101      0.0023323615   0.00038873455  20.604999      19.104243      1.500756      -1.3686513      18357.951    
    100000   1.1447046      0.0023323615   0.00022722117  20.805861      19.105974      1.6998864     -1.3552709      18441.867    
    101000   0.92728476     0.0023323615   0.0048145593   20.10657       18.729552      1.3770179     -1.7686368      18391.632    
    102000   1.1441527      0.0023323615   2.5804282e-05  20.829476      19.130409      1.6990668     -1.530526       18309.435    
    103000   1.0534731      0.0023323615   0.0011211678   20.53157       18.967163      1.5644075     -1.5759306      18292.667    
    104000   1.0550963      0.0023323615  -0.0012455611   20.554126      18.987308      1.566818      -1.5222903      18385.355    
    105000   1.0961413      0.0023323615   0.00043083356  20.759756      19.131986      1.6277698     -1.3545751      18471.046    
    106000   0.91177055     0.0023323615   0.0021382082   20.688204      19.334225      1.3539793     -1.2240328      18528.764    
    107000   1.0722306      0.0023323615  -0.00057245253  20.827772      19.235509      1.5922625     -1.3497831      18556.001    
    108000   0.91673585     0.0023323615  -0.0022488216   20.552157      19.190804      1.3613527     -1.425024       18400.712    
    109000   1.0339499      0.0023323615  -0.0024609732   20.570643      19.035227      1.5354155     -1.391255       18485.208    
    110000   1.0370565      0.0023323615  -0.0064549035   20.82984       19.289811      1.540029      -1.3332107      18330.7      
    111000   0.96936001     0.0023323615   0.00053185646  20.606582      19.167082      1.4394996     -1.3572789      18428.257    
    112000   0.89402509     0.0023323615   0.0002506578   20.651353      19.323726      1.3276273     -1.2309029      18464.13     
    113000   0.90711586     0.0023323615  -0.0013768334   20.413144      19.066077      1.3470671     -1.5115516      18652.955    
    114000   0.93626652     0.0023323615   5.0462727e-05  20.817091      19.426735      1.3903558     -1.2652832      18644.356    
    115000   1.0555433      0.0023323615  -6.9946952e-05  20.698294      19.130812      1.5674818     -1.4750915      18548.184    
    116000   0.85207645     0.0023323615   0.0051814869   20.52463       19.259297      1.2653335     -1.2763504      18508.874    
    117000   1.0228909      0.0023323615   0.0050345935   20.215941      18.696948      1.518993      -1.7964714      18420.962    
    118000   0.99046445     0.0023323615  -0.00080279806  20.720617      19.249778      1.4708397     -1.3084594      18390.433    
    119000   1.028272       0.0023323615  -0.0036421872   20.775039      19.248056      1.526984      -1.3163771      18563.807    
    120000   0.92742449     0.0023323615  -0.0018518161   20.625799      19.248574      1.3772254     -1.3747959      18478.213    
    121000   1.123587       0.0023323615   0.002876167    20.624879      18.956353      1.6685267     -1.5899137      18343.568    
    122000   1.0771178      0.0023323615   0.0013738293   20.609701      19.010182      1.5995199     -1.6202989      18402.761    
    123000   0.92581074     0.0023323615  -0.0029992444   20.493237      19.118408      1.3748289     -1.4634895      18404.631    
    124000   0.9479738      0.0023323615   0.0029642748   20.433126      19.025385      1.4077411     -1.510947       18289.248    
    125000   1.0051519      0.0023323615  -0.0041585722   20.306803      18.814152      1.4926505     -1.6509641      18201.049    
    126000   0.97057784     0.0023323615   0.0025115049   20.41076       18.969452      1.4413081     -1.5573402      18524.889    
    127000   0.94320258     0.0023323615  -0.0021797336   20.297625      18.896969      1.4006558     -1.5764101      18114.002    
    128000   0.93132958     0.0023323615  -0.0014018625   20.638763      19.255738      1.3830244     -1.3999513      18158.433    
    129000   0.87602009     0.0023323615  -0.0021718702   20.563353      19.262463      1.3008898     -1.3281398      18419.837    
    130000   1.0637735      0.0023323615   0.00018509078  20.656155      19.076452      1.5797037     -1.4359916      18541.423    
    131000   1.0241933      0.0023323615  -0.0021671865   20.407727      18.8868        1.5209271     -1.560909       18405.693    
    132000   0.97145962     0.0023323615   0.0022044624   20.447598      19.00498       1.4426175     -1.5305568      18307.534    
    133000   1.0297809      0.0023323615   0.0013887303   20.38515       18.855925      1.5292246     -1.6256842      18285.094    
    134000   0.97748636     0.0023323615   0.0016370851   20.429643      18.978076      1.4515672     -1.5730622      18395.296    
    135000   1.0001982      0.0023323615  -0.0002243283   20.515785      19.030491      1.4852943     -1.5371902      18430.97     
    136000   1.1272274      0.0023323615   0.0027826992   20.736389      19.062457      1.6739327     -1.464136       18315.029    
    137000   1.1099159      0.0023323615   0.00066148747  20.732944      19.084719      1.6482252     -1.4277659      18331.033    
    138000   1.0318863      0.0023323615  -0.00059619965  20.526623      18.994272      1.5323512     -1.5005793      18324.544    
    139000   1.1794375      0.0023323615  -0.0017656267   21.065229      19.313764      1.7514647     -1.3837416      18379.802    
    140000   1.0953118      0.0023323615  -0.0023754534   20.793251      19.166713      1.6265381     -1.4273212      18354.673    
    141000   1.0369874      0.0023323615   0.0012811803   20.583661      19.043734      1.5399263     -1.5251026      18403.623    
    142000   1.024795       0.0023323615   0.00053525171  20.449128      18.927307      1.5218206     -1.5608513      18299.881    
    143000   0.88458006     0.0023323615   0.00052239765  20.465101      19.1515        1.3136014     -1.4411172      18408.569    
    144000   0.93910482     0.0023323615   0.0014651044   20.347102      18.952532      1.3945707     -1.6121465      18446.768    
    145000   0.98610577     0.0023323615  -0.0035861302   20.496446      19.032079      1.4643671     -1.5122745      18356.459    
    146000   0.97194483     0.0023323615   0.0010358917   20.470133      19.026795      1.4433381     -1.4009385      18343.464    
    147000   1.0245157      0.0023323615   0.0046398658   20.743129      19.221723      1.5214059     -1.4554357      18423.373    
    148000   0.97244901     0.0023323615  -0.00016603411  20.797442      19.353356      1.4440868     -1.4903739      18297.855    
    149000   1.1207015      0.0023323615   0.0058418419   20.700735      19.036493      1.6642418     -1.4857166      18210.174    
    150000   1.0337246      0.0023323615   0.00077811998  20.693757      19.158676      1.5350811     -1.3432875      18429.38     
    151000   1.1330047      0.0023323615  -0.0013477633   20.711592      19.02908       1.6825121     -1.5436061      18321.803    
    152000   1.1409886      0.0023323615   0.0020110144   20.614837      18.920469      1.694368      -1.560189       18000.863    
    153000   0.91309811     0.0023323615  -0.0034339019   20.409656      19.053705      1.3559507     -1.4209571      18153.245    
    154000   1.0282249      0.0023323615   2.1824351e-06  20.610237      19.083323      1.526914      -1.4954665      18387.221    
    155000   1.1617756      0.0023323615  -0.0018190393   20.45951       18.734273      1.7252368     -1.7727429      18141.047    
    156000   0.96876188     0.0023323615   0.0021262859   20.471678      19.033067      1.4386114     -1.6176515      18191.426    
    157000   0.82166805     0.0023323615  -0.00038984545  20.000963      18.780786      1.2201771     -1.7215267      18112.861    
    158000   1.1060355      0.0023323615  -0.00083359788  20.453345      18.810882      1.6424627     -1.6747295      18248.695    
    159000   0.94775601     0.0023323615  -0.0044390972   20.586432      19.179014      1.4074177     -1.309254       18124.166    
    160000   0.99784525     0.0023323615   0.00094835533  20.569589      19.087789      1.4818002     -1.3637073      18192.258    
    161000   1.0406693      0.0023323615  -0.0024097091   20.732209      19.186815      1.5453939     -1.2872076      18331.09     
    162000   1.1367583      0.0023323615  -0.0017968598   20.5948        18.906714      1.688086      -1.586482       18230.912    
    163000   0.98947688     0.0023323615   0.0008373956   20.577397      19.108024      1.4693732     -1.3980191      18245.956    
    164000   0.97403918     0.0023323615  -0.0070238123   20.470612      19.024164      1.4464482     -1.5701315      18279.019    
    165000   1.0172824      0.0023323615  -0.0020154895   20.587956      19.077291      1.5106643     -1.4451379      18219.229    
    166000   1.0126738      0.0023323615  -0.0011120397   20.501396      18.997575      1.5038206     -1.4221277      18337.347    
    167000   1.0153114      0.0023323615   0.0018778552   20.67255       19.164813      1.5077374     -1.3325394      18404.699    
    168000   1.0618177      0.0023323615   0.00042638484  20.624942      19.048142      1.5767992     -1.4049706      18431.5      
    169000   0.94829527     0.0023323615   0.0016068387   20.4055        18.997282      1.4082185     -1.4677507      18285.198    
    170000   0.96411867     0.0023323615  -0.00086868523  20.431419      18.999703      1.4317162     -1.4996701      18239.311    
    171000   0.93117918     0.0023323615  -0.0025537286   20.447842      19.06504       1.3828011     -1.4919928      18350.762    
    172000   1.0375135      0.0023323615   0.0017899166   20.647975      19.107267      1.5407076     -1.4637386      18418.042    
    173000   1.0242559      0.0023323615  -0.0023196311   20.553447      19.032427      1.52102       -1.4648886      18415.117    
    174000   0.92485622     0.0023323615  -0.0022914538   20.532682      19.159271      1.3734115     -1.343662       18363.433    
    175000   1.1214908      0.0023323615   0.0028580316   20.684138      19.018724      1.6654139     -1.4482436      18317.698    
    176000   1.0698101      0.0023323615   0.00060433968  20.743267      19.154599      1.588668      -1.352306       18331.386    
    177000   0.98414606     0.0023323615  -0.00067980322  20.87147       19.410013      1.4614569     -1.1056427      18565.423    
    178000   1.0048218      0.0023323615   0.00070207828  20.808566      19.316405      1.4921603     -1.1379496      18696.063    
    179000   1.0412785      0.0023323615   0.0082903574   20.717876      19.171577      1.5462985     -1.3313108      18621.5      
    180000   1.1145048      0.0023323615   0.001797485    20.786629      19.131589      1.6550397     -1.3438111      18624.06     
    181000   1.0425407      0.0023323615  -0.0010144922   20.606237      19.058064      1.5481729     -1.3876134      18309.428    
    182000   0.95212289     0.0023323615  -0.0014787421   20.687576      19.273673      1.4139025     -1.3763901      18289.349    
    183000   1.1717716      0.0023323615  -0.0025685      21.058635      19.318555      1.7400808     -1.2807818      18392.781    
    184000   0.92109971     0.0023323615   0.0011595194   20.732129      19.364296      1.3678331     -1.1071531      18689.65     
    185000   0.92212048     0.0023323615   0.0010835856   20.635516      19.266167      1.3693489     -1.2488506      18664.085    
    186000   1.0300261      0.0023323615  -0.00080594989  20.671042      19.141453      1.5295888     -1.4008231      18362.419    
    187000   0.92957453     0.0023323615   0.0035579359   20.507376      19.126957      1.3804182     -1.3599673      18185.404    
    188000   0.93126426     0.0023323615   0.0031397942   20.331761      18.948834      1.3829274     -1.5231557      18144.428    
    189000   0.98165938     0.0023323615  -0.00030323047  20.603231      19.145467      1.4577642     -1.3629178      18006.614    
    190000   1.0202253      0.0023323615   0.0038944357   20.661994      19.146959      1.5150346     -1.3331984      18355.807    
    191000   1.0304279      0.0023323615  -0.0021302561   20.86436       19.334174      1.5301855     -1.283235       18346.684    
    192000   0.9829626      0.0023323615   0.00016837039  20.456192      18.996492      1.4596995     -1.487729       18328.532    
    193000   0.91639003     0.0023323615  -0.0013153452   20.514577      19.153737      1.3608392     -1.4308686      18308.746    
    194000   0.9284915      0.0023323615  -0.00015838098  20.348762      18.969952      1.3788099     -1.4258478      18301.878    
    195000   0.99167634     0.0023323615  -0.0016481907   20.65115       19.178511      1.4726394     -1.3387026      18618.877    
    196000   1.0421311      0.0023323615   0.0046141907   20.980802      19.433237      1.5475647     -1.2633433      18966.172    
    197000   0.98397408     0.0023323615  -0.00010569256  20.89083       19.429628      1.4612015     -1.0966296      18742.724    
    198000   1.0418997      0.0023323615   0.0041941218   20.782443      19.235222      1.547221      -1.2874083      18347.686    
    199000   0.96313767     0.0023323615  -0.0036659204   20.780046      19.349787      1.4302594     -1.2358348      18365.899    
    200000   1.0603678      0.0023323615   0.0017215287   20.971544      19.396898      1.5746461     -1.2253596      18574.427    
    201000   0.93771374     0.0023323615   0.0002620986   20.745817      19.353312      1.3925049     -1.162831       18847.978    
    202000   0.94270056     0.0023323615  -0.0011653896   20.647344      19.247434      1.3999103     -1.1477467      18738.544    
    203000   0.94257749     0.0023323615   0.00099240168  20.599536      19.199809      1.3997276     -1.37407        18677.378    
    204000   0.94983023     0.0023323615   0.00022866331  20.633683      19.223186      1.4104979     -1.2616873      18421.826    
    205000   0.86738631     0.0023323615  -0.0033841674   20.501677      19.213609      1.2880687     -1.2677032      18524.933    
    206000   0.97809302     0.0023323615  -0.00046761891  20.857119      19.404651      1.4524681     -1.0857977      19116.172    
    207000   1.0572256      0.0023323615  -2.639676e-05   20.876159      19.306179      1.56998       -1.2040973      19291.594    
    208000   1.1571516      0.0023323615   0.0014164586   20.933727      19.215357      1.7183701     -1.5056288      18580.599    
    209000   1.0322524      0.0023323615   0.0052626244   20.469057      18.936162      1.5328948     -1.5518394      18266.549    
    210000   0.93877222     0.0023323615  -0.0032643881   20.637332      19.243255      1.3940768     -1.3314739      18223.726    
    211000   1.1010797      0.0023323615  -0.001329447    20.789161      19.154058      1.6351034     -1.4357355      18214.235    
    212000   1.2178527      0.0023323615   0.0010517812   20.98256       19.174049      1.8085112     -1.4029816      18361.805    
    213000   1.0080967      0.0023323615  -0.00084206874  20.439038      18.942014      1.4970236     -1.6145501      18254.308    
    214000   0.93879586     0.0023323615   0.00013869905  20.032798      18.638687      1.3941119     -1.7618483      18214.587    
    215000   1.0589381      0.0023323615   0.00017944448  20.621303      19.04878       1.5725231     -1.4442662      18118.276    
    216000   0.99956736     0.0023323615  -0.0038837903   20.601881      19.117523      1.4843575     -1.466344       18193.913    
    217000   1.0191517      0.0023323615  -0.0027239385   20.406675      18.893235      1.5134403     -1.5163274      18206.723    
    218000   1.021729       0.0023323615  -0.00081164175  20.615039      19.097772      1.5172676     -1.3170221      18303.361    
    219000   0.97255378     0.0023323615  -0.00097740864  20.355219      18.910976      1.4442424     -1.4683579      18213.135    
    220000   1.0459805      0.0023323615  -0.0012723635   20.797188      19.243907      1.5532811     -1.1874445      18340.555    
    221000   1.0413042      0.0023323615   0.0017858402   20.603283      19.056946      1.5463367     -1.3741377      18307.994    
    222000   1.0963019      0.0023323615   0.0022700368   20.651328      19.02332       1.6280083     -1.4788234      18130.948    
    223000   1.1849655      0.0023323615  -0.0019132348   20.948395      19.188722      1.7596737     -1.4644585      18234.513    
    224000   0.95475661     0.0023323615  -0.0040640585   20.630459      19.212646      1.4178136     -1.252419       18273.123    
    225000   0.91529065     0.0023323615  -0.00030319712  20.606507      19.2473        1.3592066     -1.2936605      18371.822    
    226000   0.95746045     0.0023323615   0.0014155008   20.3018        18.879971      1.4218288     -1.568988       18281.704    
    227000   0.93076825     0.0023323615  -0.00089412651  20.440425      19.058234      1.3821909     -1.4350281      18226.631    
    228000   0.96876504     0.0023323615   0.0013317248   20.498254      19.059638      1.4386161     -1.4522357      18274.224    
    229000   1.0039607      0.0023323615  -6.4214601e-05  20.666728      19.175846      1.4908816     -1.3184438      18358.751    
    230000   0.94384988     0.0023323615   0.0012178643   20.458826      19.057209      1.4016171     -1.4309805      18404.984    
    231000   1.1350083      0.0023323615   0.0019585419   20.609965      18.924477      1.6854873     -1.6799597      18220.759    
    232000   0.95622906     0.0023323615  -0.0053233676   20.491163      19.071163      1.4200002     -1.4434909      18359.285    
    233000   0.9030314      0.0023323615  -0.0032299436   20.373859      19.032857      1.3410016     -1.4576212      18415.551    
    234000   0.99642926     0.0023323615   0.004878223    20.418811      18.939113      1.4796975     -1.5534591      18383.889    
    235000   1.0345787      0.0023323615  -0.002582863    20.885135      19.348786      1.5363494     -1.1242236      18304.455    
    236000   1.1155435      0.0023323615   0.0014799093   20.855333      19.198751      1.6565821     -1.4101207      18425.927    
    237000   0.87372047     0.0023323615  -0.0024503293   20.487228      19.189753      1.2974749     -1.3881328      18182.575    
    238000   1.0661905      0.0023323615  -0.0021961814   20.378006      18.794713      1.583293      -1.6410498      18195.289    
    239000   1.0821754      0.0023323615  -0.0051517588   20.490784      18.883754      1.6070305     -1.7304016      18154.12     
    240000   1.0008736      0.0023323615   0.0021109992   20.364275      18.877977      1.4862973     -1.6645238      18160.039    
    241000   1.1393643      0.0023323615  -0.0017550241   20.513723      18.821767      1.691956      -1.5821795      18355.882    
    242000   1.013498       0.0023323615  -0.0016583063   20.429505      18.92446       1.5050445     -1.5963098      18324.656    
    243000   0.91930738     0.0023323615   0.0012932895   20.604299      19.239128      1.3651715     -1.3115456      18385.642    
    244000   1.000744       0.0023323615   0.001616427    20.697461      19.211356      1.4861048     -1.2320957      18402.507    
    245000   0.89183445     0.0023323615  -0.0011612085   20.242924      18.91855       1.3243742     -1.5160391      18436.253    
    246000   0.88200768     0.0023323615  -0.00065367429  20.271748      18.961967      1.3097814     -1.5178625      18143.838    
    247000   1.1207881      0.0023323615   0.0011917076   20.573976      18.909606      1.6643703     -1.5584835      18251.214    
    248000   1.0492523      0.0023323615  -0.00021611445  20.461543      18.903403      1.5581397     -1.576332       18230.47     
    249000   0.80364706     0.0023323615   0.00012782857  20.264577      19.071161      1.1934159     -1.5576867      18127.865    
    250000   0.92239663     0.0023323615  -0.002128264    20.629073      19.259314      1.369759      -1.3387871      18205.039    
    251000   1.2623754      0.0023323615  -0.0017793613   21.15157       19.276943      1.8746275     -1.293756       18666.839    
    252000   0.9910527      0.0023323615   0.00038012805  20.382769      18.911056      1.4717133     -1.5404293      18293.905    
    253000   0.98471698     0.0023323615  -0.0013226567   20.526342      19.064037      1.4623047     -1.4919387      18263.393    
    254000   1.135824       0.0023323615   0.0046855333   21.029253      19.342555      1.6866987     -1.1561068      18416.21     
    255000   0.99091609     0.0023323615   3.9594817e-05  20.349292      18.877781      1.4715104     -1.6126282      18379.775    
    256000   0.94663905     0.0023323615  -0.0023452144   20.364594      18.958835      1.405759      -1.5190702      18180.279    
    257000   0.88577117     0.0023323615  -0.0054227583   20.301411      18.986041      1.3153702     -1.4756147      18202.148    
    258000   1.0117098      0.0023323615  -0.0042097029   20.754429      19.25204       1.502389      -1.219389       18321.087    
    259000   1.055252       0.0023323615  -0.00019002086  20.83012       19.263071      1.5670492     -1.4052787      18474.372    
    260000   0.99121827     0.0023323615   0.0017399952   20.547317      19.075358      1.4719591     -1.4839781      18279.82     
    261000   0.99904181     0.0023323615   0.0014771271   20.540174      19.056597      1.4835771     -1.5169162      18364.811    
    262000   0.98502491     0.0023323615   0.0003442186   20.634464      19.171702      1.462762      -1.3795859      18437.339    
    263000   1.0529796      0.0023323615   0.00078838238  21.016304      19.45263       1.5636747     -1.1630496      18482.98     
    264000   1.1293668      0.0023323615   5.5593328e-05  20.806189      19.129079      1.6771097     -1.2963506      18433.849    
    265000   1.1086161      0.0023323615  -0.0031821935   20.930072      19.283777      1.646295      -1.2226032      18554.984    
    266000   1.1592662      0.0023323615   0.0015424489   20.688401      18.966891      1.7215103     -1.554968       18293.15     
    267000   1.016463       0.0023323615   0.0038999028   20.853017      19.343569      1.5094476     -1.2345311      18352.547    
    268000   1.0541213      0.0023323615   0.0037548955   20.73426       19.16889       1.5653702     -1.3062296      18338.368    
    269000   0.9063325      0.0023323615  -0.0021281086   20.329251      18.983347      1.3459038     -1.474089       18201.839    
    270000   0.96886367     0.0023323615   0.0046323202   20.586955      19.148193      1.4387625     -1.3473271      18081.414    
    271000   0.94050893     0.0023323615  -0.0060776259   20.370237      18.973581      1.3966558     -1.5467939      18325.315    
    272000   1.0208547      0.0023323615   0.0018797218   20.358162      18.842193      1.5159692     -1.6096355      18243.855    
    273000   0.870882       0.0023323615   0.0017289789   20.2237        18.93044       1.2932598     -1.4817449      18347.368    
    274000   0.86982963     0.0023323615   0.0053764872   20.216399      18.924702      1.291697      -1.5767691      18341.664    
    275000   0.92559093     0.0023323615  -0.00086201434  20.153738      18.779236      1.3745025     -1.7275302      18128.942    
    276000   1.2053924      0.0023323615   0.0032268828   20.696227      18.90622       1.7900076     -1.5682405      18251.094    
    277000   1.1665319      0.0023323615  -6.9250263e-05  20.822245      19.089945      1.7322999     -1.4427635      18130.019    
    278000   1.0185653      0.0023323615  -0.0017859596   20.677501      19.164931      1.5125695     -1.2368534      18536.018    
    279000   1.1636185      0.0023323615   1.5751708e-05  20.863515      19.135542      1.7279734     -1.2624265      18449.434    
    280000   0.91018773     0.0023323615   0.003940135    20.560645      19.209016      1.3516288     -1.3986782      18239.011    
    281000   0.97859669     0.0023323615   0.0021748468   20.635011      19.181795      1.4532161     -1.482447       18320.616    
    282000   1.0253862      0.0023323615   0.00060090474  20.787376      19.264677      1.5226985     -1.3505216      18325.951    
    283000   0.92648809     0.0023323615  -0.00075000647  20.415652      19.039818      1.3758348     -1.3811924      18111.659    
    284000   1.0196727      0.0023323615  -0.0021847523   20.500639      18.986426      1.5142139     -1.4992633      18610.549    
    285000   0.91786753     0.0023323615  -8.0747592e-05  20.317326      18.954293      1.3630333     -1.4565526      18562.92     
    286000   1.1124668      0.0023323615  -0.0034956766   20.954711      19.302698      1.6520132     -1.4281217      18431.099    
    287000   1.0761999      0.0023323615  -0.00025773988  20.651404      19.053247      1.5981568     -1.6639948      18292.298    
    288000   1.0945679      0.0023323615   0.0067333603   20.585883      18.960449      1.6254334     -1.5217316      18214.598    
    289000   1.1051382      0.0023323615   0.00069552654  20.677587      19.036457      1.6411303     -1.3639369      18231.558    
    290000   1.0407065      0.0023323615   0.0020337317   20.580794      19.035345      1.5454492     -1.5186259      18387.929    
    291000   0.90021523     0.0023323615   0.0013962345   20.022649      18.685829      1.3368196     -1.7764952      18301.25     
    292000   1.1153622      0.0023323615   0.0013769208   20.34918       18.692867      1.6563128     -1.7277588      18326.365    
    293000   1.1003322      0.0023323615  -0.00024202838  20.731756      19.097762      1.6339934     -1.4485758      18167.708    
    294000   1.0089793      0.0023323615  -0.0026631908   20.735079      19.236744      1.4983342     -1.2865396      18358.262    
    295000   0.904028       0.0023323615   0.0019961884   20.622218      19.279736      1.3424816     -1.2148945      18578.434    
    296000   1.0100435      0.0023323615  -0.0017988555   20.592962      19.093047      1.4999147     -1.3002769      18500.081    
    297000   0.92463702     0.0023323615   0.0021960341   20.453394      19.080308      1.373086      -1.397767       18731.444    
    298000   0.93667087     0.0023323615  -0.0026365983   20.957076      19.56612       1.3909562     -1.1275354      19597.127    
    299000   0.91956816     0.0023323615   0.0051225808   20.301976      18.936417      1.3655587     -1.5573476      18833.62     
    300000   1.0062644      0.0023323615  -0.0036954525   20.479058      18.984755      1.4943026     -1.469784       18274.859    
    301000   0.99227584     0.0023323615  -0.00043320482  20.464095      18.990565      1.4735296     -1.5074023      18342.931    
    302000   1.0741356      0.0023323615  -0.0035578727   20.627356      19.032265      1.5950913     -1.5467443      18424.61     
    303000   1.1073149      0.0023323615  -6.9508177e-05  20.515715      18.871353      1.6443626     -1.5083974      18211.467    
    304000   0.92387316     0.0023323615  -0.00069687653  20.308126      18.936174      1.3719516     -1.6212389      18141.183    
    305000   0.99713494     0.0023323615  -0.00011473817  20.753437      19.272692      1.4807454     -1.3551691      18115.567    
    306000   0.98578636     0.0023323615   0.001744823    20.24742       18.783527      1.4638927     -1.6062984      18314.501    
    307000   1.0832512      0.0023323615   0.0013241393   20.769184      19.160556      1.6086281     -1.3123566      18244.148    
    308000   0.92315657     0.0023323615   0.0020837323   20.438486      19.067598      1.3708875     -1.4218663      18219.199    
    309000   1.0227394      0.0023323615  -0.0021218933   20.67403       19.155262      1.5187679     -1.3898807      18092.945    
    310000   1.0309424      0.0023323615   0.0014279551   20.509265      18.978315      1.5309495     -1.50924        18184.88     
    311000   1.037201       0.0023323615  -0.00082595672  20.73192       19.191677      1.5402434     -1.3661625      18252.94     
    312000   1.0059696      0.0023323615   0.00047750588  20.127637      18.633773      1.4938648     -1.7154999      18205.61     
    313000   0.97989622     0.0023323615  -0.0017345646   20.467594      19.012448      1.4551459     -1.5850211      18311.467    
    314000   0.91843728     0.0023323615  -0.00068391129  20.394147      19.030268      1.3638794     -1.4531558      18168.184    
    315000   1.1400799      0.0023323615   0.00056195041  20.758287      19.065268      1.6930186     -1.4346054      18348.755    
    316000   1.0273975      0.0023323615   0.00047777957  20.768467      19.242782      1.5256853     -1.296811       18654.74     
    317000   1.1059234      0.0023323615  -0.00071359439  20.828745      19.186448      1.6422962     -1.2773637      18780.441    
    318000   0.89920325     0.0023323615   0.0019750921   20.215011      18.879695      1.3353168     -1.6477734      18541.716    
    319000   0.98523022     0.0023323615   0.0031035881   20.536524      19.073457      1.4630669     -1.478033       18274.826    
    320000   0.96068898     0.0023323615  -0.0055654193   20.702856      19.276232      1.4266231     -1.2390647      18578.894    
    321000   0.98029143     0.0023323615  -0.0013758953   20.390561      18.934828      1.4557328     -1.6047166      18361.96     
    322000   0.98271052     0.0023323615  -0.002599032    20.634556      19.175231      1.4593251     -1.4672774      18323.142    
    323000   1.1320267      0.0023323615   0.0024030648   20.865907      19.184848      1.6810596     -1.4187872      18320.092    
    324000   0.94544627     0.0023323615  -0.0021569488   20.49018       19.086193      1.4039877     -1.4039357      18446.212    
    325000   0.99535496     0.0023323615  -0.0017540218   20.554735      19.076633      1.4781021     -1.3577893      18261.987    
    326000   0.86261745     0.0023323615   0.0011521871   20.243306      18.962319      1.2809869     -1.5986565      18160.482    
    327000   1.0220793      0.0023323615  -0.0013398943   20.583939      19.066152      1.5177877     -1.6742523      18134.634    
    328000   0.96252436     0.0023323615   0.00024714209  20.747387      19.318038      1.4293487     -1.254143       18404.21     
    329000   1.0118722      0.0023323615   0.0012524966   20.717749      19.215119      1.5026302     -1.3635796      18785.64     
    330000   1.005566       0.0023323615  -0.00089069651  20.583528      19.090263      1.4932654     -1.4448725      18542.333    
    331000   0.88539999     0.0023323615   0.0018524853   20.391365      19.076546      1.314819      -1.4005322      18439.263    
    332000   0.88683308     0.0023323615  -0.0043843844   20.56714       19.250193      1.3169471     -1.2950389      18338.328    
    333000   0.94229969     0.0023323615  -0.0021985158   20.502173      19.102858      1.399315      -1.5067674      18365.342    
    334000   0.94236639     0.0023323615  -0.0022628562   20.243646      18.844232      1.3994141     -1.6791005      18187.829    
    335000   1.0194768      0.0023323615   0.0038234354   20.543949      19.030026      1.513923      -1.4225966      18262.915    
    336000   1.0139592      0.0023323615  -0.00030121965  20.507041      19.001311      1.5057294     -1.4803287      18186.845    
    337000   0.98342925     0.0023323615  -0.00074820504  20.409857      18.949465      1.4603924     -1.5706634      18283.744    
    338000   1.0181999      0.0023323615   0.0008333956   20.537866      19.025839      1.5120268     -1.5453944      18300.653    
    339000   0.89855647     0.0023323615  -0.0013430757   20.393868      19.059511      1.3343564     -1.5281706      18378.618    
    340000   1.0296362      0.0023323615  -0.00043752702  20.508841      18.979831      1.5290097     -1.4921401      18225.923    
    341000   0.93329429     0.0023323615   0.00034574566  20.473023      19.087081      1.385942      -1.4122364      18273.053    
    342000   0.92109381     0.0023323615   0.0019160274   20.620391      19.252566      1.3678243     -1.3471758      18284.46     
    343000   0.96335679     0.0023323615  -0.0023709974   20.575285      19.1447        1.4305848     -1.5490995      18214.401    
    344000   1.1815605      0.0023323615   0.0011284118   20.843404      19.088787      1.7546173     -1.3699057      18239.151    
    345000   1.0179663      0.0023323615  -0.00013024331  20.496159      18.984479      1.5116799     -1.4677452      18317.113    
    346000   0.97800163     0.0023323615   0.00061270177  20.583111      19.130778      1.4523324     -1.4063142      18318.639    
    347000   1.042995       0.0023323615  -0.0017332562   20.638216      19.089369      1.5488475     -1.3939037      18363.919    
    348000   0.96305236     0.0023323615  -0.0032427732   20.57243       19.142297      1.4301328     -1.413485       18512.643    
    349000   0.90414487     0.0023323615  -0.0028899193   20.38438       19.041725      1.3426551     -1.388108       18260.77     
    350000   0.95181914     0.0023323615  -0.003974709    20.446819      19.033368      1.4134514     -1.5380677      18372.495    
    351000   0.94772266     0.0023323615   0.0041201894   20.599418      19.192049      1.4073682     -1.4374326      18299.227    
    352000   1.1082178      0.0023323615  -0.0046645507   20.673009      19.027306      1.6457034     -1.5612021      18383.306    
    353000   1.0316007      0.0023323615  -0.0015632909   20.683418      19.15149       1.5319271     -1.4400401      18361.987    
    354000   1.0320069      0.0023323615  -0.0037327435   20.918513      19.385982      1.5325302     -1.1783495      18244.062    
    355000   1.1311554      0.0023323615   0.0022941313   20.989686      19.30992       1.6797658     -1.212609       18719.306    
    356000   0.97768742     0.0023323615   0.00052713475  20.747849      19.295983      1.4518658     -1.2510542      18327.801    
    357000   0.93305597     0.0023323615  -0.0004936596   20.360441      18.974853      1.3855881     -1.5295361      18437.258    
    358000   0.95777252     0.0023323615   0.0037873146   20.835336      19.413044      1.4222922     -1.1661833      18268.621    
    359000   1.0497273      0.0023323615  -0.0027210666   20.595115      19.03627       1.5588451     -1.3999528      18618.321    
    360000   0.94462543     0.0023323615  -0.0029781989   20.604651      19.201882      1.4027688     -1.3413773      18485.568    
    361000   1.0416273      0.0023323615  -0.0039240193   20.561456      19.014639      1.5468166     -1.5289016      18343.386    
    362000   1.1499983      0.0023323615   0.00016634402  20.770616      19.062868      1.7077475     -1.4048109      18217.506    
    363000   0.97587967     0.0023323615  -0.0025796667   20.276335      18.827153      1.4491813     -1.6049989      18203.306    
    364000   0.97932539     0.0023323615   0.00056222817  20.572026      19.117728      1.4542982     -1.3342516      18119.497    
    365000   1.1069169      0.0023323615   0.00056169053  20.721156      19.077384      1.6437716     -1.4593481      18229.667    
    366000   0.81768365     0.0023323615  -0.0013329917   20.306832      19.092572      1.2142602     -1.4740758      18214.484    
    367000   0.94956825     0.0023323615   0.0014558966   20.328625      18.918516      1.4101089     -1.6424599      18174.397    
    368000   0.96626131     0.0023323615   0.0011608746   20.57073       19.135832      1.434898      -1.5822231      18235.099    
    369000   1.1908949      0.0023323615  -0.0011697852   20.80466       19.036181      1.768479      -1.5561603      18207.191    
    370000   1.0095887      0.0023323615   0.0011474007   20.684238      19.184999      1.4992392     -1.3571415      18125.209    
    371000   1.0815724      0.0023323615   0.0039189567   20.655764      19.049629      1.606135      -1.4317873      18380.172    
    372000   0.9205534      0.0023323615  -0.0033000371   20.283788      18.916767      1.3670218     -1.5351681      18392.815    
    373000   1.0726572      0.0023323615   0.0027866947   20.782675      19.189779      1.5928959     -1.3385323      18336.138    
    374000   1.0390985      0.0023323615  -2.1940379e-05  20.486826      18.943765      1.5430612     -1.4517602      18230.606    
    375000   1.0478797      0.0023323615  -0.00099480298  20.604248      19.048147      1.5561013     -1.4687247      18285.995    
    376000   1.049514       0.0023323615   0.0016484546   20.683983      19.125454      1.5585284     -1.4650147      18160.036    
    377000   1.0100161      0.0023323615   0.0044565043   20.3868        18.886926      1.4998739     -1.4360546      18296.094    
    378000   0.99332333     0.0023323615  -0.0011562741   20.440308      18.965223      1.4750851     -1.4233326      18121.26     
    379000   1.0064015      0.0023323615  -0.0012612446   20.639864      19.145358      1.4945062     -1.4036101      18410.426    
    380000   0.96284106     0.0023323615   0.0016326588   20.489357      19.059538      1.429819      -1.390976       18226.834    
    381000   0.78881728     0.0023323615   0.00025579908  20.00701       18.835616      1.1713937     -1.7356079      18301.455    
    382000   0.90929102     0.0023323615  -0.0021664842   20.557391      19.207094      1.3502972     -1.405858       18244.012    
    383000   1.1586198      0.0023323615  -0.0045189343   20.887786      19.167236      1.7205504     -1.3569063      18290.542    
    384000   1.0469998      0.0023323615   0.0019281363   20.534571      18.979777      1.5547947     -1.5542016      18205.461    
    385000   1.0846659      0.0023323615  -0.0022725606   20.54412       18.933391      1.6107288     -1.5667919      18245.923    
    386000   1.0655558      0.0023323615  -0.0016224159   20.466212      18.883862      1.5823504     -1.6103778      18130.552    
    387000   1.0553099      0.0023323615   0.0030961056   20.550892      18.983757      1.5671352     -1.5264316      18141.463    
    388000   0.98091058     0.0023323615  -0.0047631172   20.665637      19.208985      1.4566522     -1.4797531      18156.914    
    389000   0.98509609     0.0023323615  -0.00026955512  20.53941       19.076543      1.4628677     -1.5118949      18261.038    
    390000   1.0032289      0.0023323615  -0.00055553449  20.458769      18.968974      1.4897949     -1.4676789      18336.711    
    391000   1.0067006      0.0023323615  -0.0021728974   20.525047      19.030097      1.4949504     -1.4433925      18373.273    
    392000   1.0840821      0.0023323615   0.001810344    20.656349      19.046487      1.6098619     -1.5324707      18214.86     
    393000   1.1005328      0.0023323615  -0.0026436959   20.462006      18.827715      1.6342913     -1.6510115      18123.685    
    394000   1.0980838      0.0023323615   0.00090924179  20.725122      19.094468      1.6306544     -1.3990944      18386.906    
    395000   1.034449       0.0023323615  -0.0018553472   20.760316      19.22416       1.5361567     -1.2547456      18322.143    
    396000   0.97689875     0.0023323615  -0.0013477135   20.583107      19.132412      1.4506946     -1.3953942      18452.92     
    397000   0.95774402     0.0023323615  -0.0019921502   20.443438      19.021188      1.4222499     -1.533901       18165.939    
    398000   0.90398219     0.0023323615  -0.0020536363   20.179793      18.83738       1.3424135     -1.6688706      18379.122    
    399000   1.0184432      0.0023323615  -0.0029256533   20.496226      18.983838      1.5123882     -1.5923144      18178.7      
    400000   1.0240387      0.0023323615  -0.0051582169   20.799216      19.278518      1.5206975     -1.4514366      18322.802    
    401000   0.98420878     0.0023323615  -0.0016987633   20.610219      19.148669      1.46155       -1.3889618      18429.482    
    402000   1.0186947      0.0023323615   0.00072637387  20.572217      19.059455      1.5127617     -1.5418233      18393.259    
    403000   0.92347297     0.0023323615  -0.0024610251   20.508997      19.13764       1.3713574     -1.3553937      18386.564    
    404000   1.0180875      0.0023323615  -0.00044628689  20.446277      18.934417      1.51186       -1.621112       18338.971    
    405000   0.87614502     0.0023323615  -0.0043133106   20.348151      19.047075      1.3010754     -1.5534773      18360.886    
    406000   0.96778317     0.0023323615   2.0879851e-05  20.492157      19.054999      1.437158      -1.4801928      18216.984    
    407000   1.1095874      0.0023323615   0.0012819872   20.434846      18.787109      1.6477373     -1.631739       18251.187    
    408000   1.0711197      0.0023323615   0.0043760659   20.603076      19.012464      1.5906127     -1.4590134      18420.299    
    409000   1.0621337      0.0023323615   0.0017853348   20.615343      19.038075      1.5772686     -1.5092295      18403.124    
    410000   0.97669021     0.0023323615   0.0036781544   20.757816      19.307431      1.450385      -1.3171655      18338.964    
[...]
    861000   1.1328941      0.0023323615   0.0029262401   20.66829       18.985943      1.6823477     -1.4614868      18241.484    
    862000   1.0043935      0.0023323615  -0.0030285654   20.79122       19.299696      1.4915243     -1.210744       18285.945    
    863000   0.96361289     0.0023323615   0.00019922429  20.226303      18.795338      1.4309651     -1.5833858      18324.598    
    864000   0.96731296     0.0023323615  -0.0012175083   20.543637      19.107178      1.4364597     -1.5016448      18287.69     
    865000   0.9030405      0.0023323615   0.0011529477   20.531339      19.190324      1.3410151     -1.4285515      18250.203    
    866000   0.97402478     0.0023323615  -0.0034884773   20.280216      18.83379       1.4464268     -1.6016804      18213.969    
    867000   0.81882205     0.0023323615   0.0028303388   20.295304      19.079353      1.2159507     -1.359919       18206.809    
    868000   0.92697073     0.0023323615  -0.004093085    20.26915       18.892599      1.3765515     -1.6474674      18369.144    
    869000   0.92351009     0.0023323615   0.001570608    20.643876      19.272463      1.3714125     -1.2820518      18443.073    
    870000   1.1900428      0.0023323615   0.00092107989  20.670392      18.903178      1.7672136     -1.5400481      18389.548    
    871000   1.1177722      0.0023323615  -0.0082400003   20.667764      19.007872      1.6598917     -1.5536929      18365.359    
    872000   0.88701848     0.0023323615   0.0018424443   20.323936      19.006714      1.3172224     -1.612332       18190.003    
    873000   0.95454289     0.0023323615   0.00054615326  20.376193      18.958696      1.4174962     -1.4722575      18285.312    
    874000   1.0163505      0.0023323615   0.0034063598   20.761286      19.252006      1.5092804     -1.4016182      18264.269    
    875000   0.96663738     0.0023323615   0.00042202004  20.058763      18.623306      1.4354565     -1.7811089      18168.22     
    876000   0.93703897     0.0023323615  -0.0035001955   20.486186      19.094683      1.3915029     -1.3712553      18146.384    
    877000   0.89954471     0.0023323615   0.003649827    20.010122      18.674298      1.3358239     -1.7286346      18222.775    
    878000   0.85673863     0.0023323615   0.003206494    20.290198      19.017941      1.2722569     -1.5572157      18055.908    
    879000   1.0522585      0.0023323615  -0.0015497872   20.564921      19.002317      1.5626039     -1.4391211      18049.254    
    880000   0.9873716      0.0023323615  -0.0040194258   20.395597      18.92935       1.4662468     -1.548355       18115.215    
    881000   0.91488239     0.0023323615   0.001201724    20.29245       18.933849      1.3586003     -1.5918238      18149.7      
    882000   1.0161615      0.0023323615   0.0024085911   20.638532      19.129533      1.5089998     -1.4493407      18403.416    
    883000   1.1969362      0.0023323615   0.0015935808   20.790387      19.012937      1.7774502     -1.484743       18431.803    
    884000   1.0520154      0.0023323615   0.001377447    20.60184       19.039597      1.5622429     -1.453093       18255.193    
    885000   0.95318145     0.0023323615   0.00039757925  20.465033      19.049558      1.4154744     -1.4301461      18382.097    
    886000   0.85858429     0.0023323615  -0.0019351704   20.212065      18.937067      1.2749977     -1.4439282      18416.353    
    887000   1.0291671      0.0023323615   0.0011472253   20.727288      19.198974      1.5283131     -1.3593235      18508.438    
    888000   1.0724301      0.0023323615   0.0010518815   20.588878      18.99632       1.5925587     -1.4604257      18638.737    
    889000   1.0460439      0.0023323615   0.0037232662   20.375617      18.822242      1.5533752     -1.5255015      18326.913    
    890000   0.92749982     0.0023323615   0.0030419221   20.474183      19.096846      1.3773372     -1.5117468      18205.577    
    891000   0.9850097      0.0023323615  -0.0014680343   20.426763      18.964024      1.4627394     -1.533819       18332.43     
    892000   0.98364455     0.0023323615  -0.00205554     20.8035        19.342788      1.4607122     -1.2304325      18279.254    
    893000   1.0466658      0.0023323615   0.0016308408   20.81898       19.264681      1.5542987     -1.3487681      18333.248    
    894000   0.97150355     0.0023323615  -0.0011275482   20.582512      19.13983       1.4426828     -1.4492807      18280.157    
    895000   0.93314352     0.0023323615  -0.00059387514  20.472386      19.086667      1.3857181     -1.5413854      18415.861    
    896000   1.0052076      0.0023323615   0.0014645851   20.727461      19.234728      1.4927333     -1.1692936      18401.268    
    897000   0.91832973     0.0023323615  -0.0055644249   20.853136      19.489417      1.3637196     -1.1491344      18594.77     
    898000   0.95600701     0.0023323615  -0.0030825672   20.707504      19.287833      1.4196704     -1.2507518      18584.308    
    899000   0.96725325     0.0023323615  -0.0017114462   20.70666       19.270289      1.4363711     -1.3301757      18343.171    
    900000   0.96256978     0.0023323615   0.00012927089  20.694804      19.265388      1.4294161     -1.2673819      18443.826    
    901000   0.7785243      0.0023323615  -0.0018428493   19.846133      18.690024      1.1561086     -1.6527935      18222.502    
    902000   0.96912742     0.0023323615  -0.0013380131   20.28558       18.846426      1.4391542     -1.6875476      18075.609    
    903000   0.86536689     0.0023323615  -0.00018208509  20.439028      19.153959      1.2850698     -1.4200425      18313.389    
    904000   0.84589815     0.0023323615  -0.0014353836   20.401019      19.14486       1.2561588     -1.4112757      18522.496    
    905000   0.95843396     0.0023323615  -0.0014449074   20.649221      19.225947      1.4232744     -1.3702936      18397.144    
    906000   0.99245493     0.0023323615  -0.00085961994  20.524147      19.050352      1.4737956     -1.4855333      18601.944    
    907000   1.077439       0.0023323615   0.00032189508  20.946173      19.346177      1.5999969     -1.2806939      18440.684    
    908000   1.0296017      0.0023323615   0.0036786609   20.50777       18.978812      1.5289586     -1.5296138      18378.225    
    909000   0.93139163     0.0023323615  -0.0069400006   20.597604      19.214487      1.3831166     -1.4291645      18320.455    
    910000   1.0459025      0.0023323615  -0.000874539    20.704908      19.151743      1.5531652     -1.3604692      18238.488    
    911000   1.1082962      0.0023323615   0.0049514707   21.117291      19.471471      1.6458199     -1.2065368      18404.156    
    912000   1.0852829      0.0023323615   0.0025470628   20.65882       19.047175      1.6116451     -1.4712409      18472.974    
    913000   1.1030745      0.0023323615   0.0033906805   20.611493      18.973427      1.6380656     -1.4475688      18625.468    
    914000   0.95735442     0.0023323615   0.0012270215   20.511884      19.090212      1.4216713     -1.411606       18842.519    
    915000   1.1990678      0.0023323615  -0.00084370136  20.823121      19.042505      1.7806157     -1.482637       18774.672    
    916000   1.1162649      0.0023323615   0.0033182443   20.666675      19.009021      1.6576534     -1.4334121      18673.866    
    917000   0.96347893     0.0023323615  -0.00052795802  20.468263      19.037497      1.4307662     -1.3957298      18602.269    
    918000   0.94384341     0.0023323615   0.00076114771  20.430035      19.028428      1.4016075     -1.6250314      18461.593    
    919000   1.1244069      0.0023323615  -0.00088010306  20.526676      18.856931      1.6697443     -1.5811431      18501.895    
    920000   0.99031717     0.0023323615   0.00091852937  20.886846      19.416225      1.470621      -1.1682687      18566.618    
    921000   1.0223711      0.0023323615  -0.0010913902   20.297075      18.778854      1.518221      -1.6793743      18335.529    
    922000   1.0099404      0.0023323615  -0.002118688    20.536468      19.036706      1.4997615     -1.4915581      18507.621    
    923000   1.0349158      0.0023323615  -0.0024169013   20.473753      18.936903      1.53685       -1.4457613      18384.766    
    924000   0.88680138     0.0023323615   0.002229445    20.345318      19.028418      1.3169001     -1.5805977      18470.082    
    925000   1.196673       0.0023323615  -0.0022817442   20.756511      18.979451      1.7770594     -1.4701634      18503.59     
    926000   1.157797       0.0023323615  -0.0028333269   20.871655      19.152327      1.7193285     -1.4006063      18470.55     
    927000   1.0549142      0.0023323615  -0.0014660046   20.542442      18.975894      1.5665476     -1.4867509      18424.468    
    928000   0.99618314     0.0023323615   0.0023872978   20.519031      19.039699      1.479332      -1.5608833      18473.374    
    929000   1.0067675      0.0023323615   0.0061644928   20.551788      19.056738      1.4950497     -1.4079927      18097.55     
    930000   0.93299689     0.0023323615  -0.0014657118   20.319577      18.934076      1.3855004     -1.5637531      18459.541    
    931000   1.0772673      0.0023323615  -1.0049082e-05  20.563968      18.964226      1.5997419     -1.5859485      18532.62     
    932000   0.91843881     0.0023323615   0.0032380041   20.535375      19.171494      1.3638816     -1.3321368      18445.677    
    933000   0.97415126     0.0023323615   0.0023605991   20.647193      19.200579      1.4466146     -1.3211727      18580.488    
    934000   0.95004979     0.0023323615   0.0029148344   20.395024      18.9842        1.4108239     -1.4867253      18523.527    
    935000   1.1038231      0.0023323615  -0.00014062867  21.001459      19.362282      1.6391773     -1.3012849      18502.763    
    936000   0.96900476     0.0023323615   0.0020061271   20.45764       19.018667      1.4389721     -1.5301853      18606.75     
    937000   1.0017131      0.0023323615   0.0050176756   20.656758      19.169214      1.4875439     -1.219399       18465.175    
    938000   1.0350009      0.0023323615  -0.0017743989   20.415719      18.878743      1.5369763     -1.5579736      18482.877    
    939000   0.96612969     0.0023323615   0.00026212384  20.249681      18.814979      1.4347026     -1.6517032      18243.701    
    940000   1.1075196      0.0023323615  -0.0004958248   20.70696       19.062293      1.6446666     -1.5005006      18434.534    
    941000   1.0384452      0.0023323615  -0.00084600486  20.806416      19.264325      1.5420912     -1.2556768      18803.391    
    942000   1.010441       0.0023323615  -0.0010881467   20.574461      19.073956      1.5005048     -1.401855       18909.433    
    943000   0.93554706     0.0023323615   0.0026630492   20.477978      19.08869       1.3892874     -1.5332839      18686.511    
    944000   0.89049477     0.0023323615   0.0025147645   20.621997      19.299612      1.3223847     -1.2453379      18784.159    
    945000   0.95161402     0.0023323615   0.00089606767  20.560582      19.147435      1.4131468     -1.3013624      18682.349    
    946000   0.94971296     0.0023323615  -0.0018247107   20.414119      19.003796      1.4103238     -1.5229402      18597.944    
    947000   1.0442244      0.0023323615   0.0011907207   20.527536      18.976862      1.5506732     -1.5336725      18488.046    
    948000   1.1522153      0.0023323615  -0.005671505    20.687542      18.976502      1.7110397     -1.4388695      18511.774    
    949000   0.97646923     0.0023323615   0.0041705735   20.276172      18.826115      1.4500568     -1.6074782      18374.954    
    950000   1.104457       0.0023323615  -0.0035120481   20.824648      19.184529      1.6401187     -1.3829072      18418.895    
    951000   1.0598175      0.0023323615   0.00017178575  20.564049      18.99022       1.573829      -1.5325691      18468.503    
    952000   1.0694442      0.0023323615   0.00045509689  20.386671      18.798546      1.5881247     -1.5983378      18338.816    
    953000   1.008297       0.0023323615  -0.0029896966   20.579595      19.082274      1.4973211     -1.4795838      18327.98     
    954000   1.083254       0.0023323615   0.0039031087   20.66481       19.056178      1.6086322     -1.4789922      18506.814    
    955000   1.0354986      0.0023323615   0.00082327963  20.656867      19.119151      1.5377153     -1.4400552      18553.614    
    956000   1.0391447      0.0023323615  -0.002501368    20.685581      19.142451      1.5431299     -1.4481958      18475.498    
    957000   1.105969       0.0023323615  -0.0019997196   20.489899      18.847535      1.642364      -1.6091347      18359.558    
    958000   0.99173484     0.0023323615   0.0033753981   20.563019      19.090293      1.4727262     -1.4357937      18319.039    
    959000   1.0322679      0.0023323615   0.0020030955   20.509375      18.976457      1.5329179     -1.4874173      18430.694    
    960000   0.95869746     0.0023323615  -0.00025711114  20.76539       19.341724      1.4236657     -1.2362674      18519.022    
    961000   0.95029201     0.0023323615  -0.00029302067  20.471461      19.060277      1.4111836     -1.5093814      18561.677    
    962000   1.0853713      0.0023323615   0.00026790734  20.635794      19.024017      1.6117763     -1.6031763      18449.557    
    963000   0.9402376      0.0023323615   0.0048474335   20.161391      18.765138      1.3962528     -1.6748714      18271.22     
    964000   1.0210802      0.0023323615  -0.00041256084  20.529587      19.013283      1.5163041     -1.4943547      18347.217    
    965000   1.1113509      0.0023323615  -0.00018551678  20.633209      18.982853      1.650356      -1.5388263      18325.658    
    966000   0.92939524     0.0023323615   0.00033756865  20.577569      19.197417      1.3801519     -1.2987332      18479.924    
    967000   1.0358254      0.0023323615  -0.00096092296  20.697513      19.159313      1.5382007     -1.3125956      18404.01     
    968000   0.9343535      0.0023323615  -0.0025063195   20.367749      18.980235      1.3875149     -1.5854676      18380.825    
    969000   1.0370212      0.0023323615  -0.0021781587   20.711605      19.171628      1.5399765     -1.3445089      18318.518    
    970000   0.95042451     0.0023323615   0.0048517297   20.597127      19.185747      1.4113804     -1.3468191      18539.822    
    971000   1.0960959      0.0023323615  -0.0044916799   20.697932      19.07023       1.6277024     -1.4086518      18382.69     
    972000   0.96015982     0.0023323615  -0.0008301554   20.363329      18.937491      1.4258373     -1.5776307      18482.894    
    973000   0.99002842     0.0023323615   0.0010468873   20.48765       19.017458      1.4701922     -1.5500165      18421.751    
    974000   1.0831164      0.0023323615  -0.0034124957   20.741854      19.133427      1.6084279     -1.4142799      18433.264    
    975000   0.9898592      0.0023323615  -0.0012537221   20.751017      19.281076      1.4699409     -1.366425       18402.703    
    976000   1.1333944      0.0023323615   0.0008865599   20.79454       19.111449      1.6830906     -1.4666924      18376.067    
    977000   1.0526284      0.0023323615  -0.0033489108   20.46325       18.900096      1.5631532     -1.6057388      18488.31     
    978000   1.029879       0.0023323615  -0.0044931908   20.742847      19.213477      1.5293703     -1.353675       18292.47     
    979000   0.94668098     0.0023323615  -9.3773023e-05  20.748705      19.342884      1.4058213     -1.2325958      18476.311    
    980000   0.92251316     0.0023323615   0.0038588112   20.498681      19.128748      1.369932      -1.4748022      18505.487    
    981000   0.92271809     0.0023323615  -0.00095780368  20.416542      19.046306      1.3702364     -1.4329654      18220.902    
    982000   1.041932       0.0023323615  -0.00071606445  20.544479      18.99721       1.5472691     -1.5321056      18462.088    
    983000   1.025546       0.0023323615  -0.00082582301  20.60041       19.077474      1.5229358     -1.4707724      18358.461    
    984000   0.94882309     0.0023323615  -0.0028529283   20.399484      18.990481      1.4090023     -1.5881134      18424.73     
    985000   1.0171769      0.0023323615   0.0027051963   20.334704      18.824196      1.5105077     -1.6708958      18487.824    
    986000   1.034011       0.0023323615   0.00088117066  20.389142      18.853636      1.5355063     -1.5941548      18400.722    
    987000   1.0525         0.0023323615   0.0033874842   20.737214      19.174251      1.5629625     -1.4956396      18328.754    
    988000   0.86724964     0.0023323615  -0.0013016566   19.975968      18.688102      1.2878657     -1.7215909      18341.354    
    989000   1.1791324      0.0023323615   0.002478922    20.81788       19.066868      1.7510116     -1.4062092      18302.408    
    990000   1.0575691      0.0023323615   0.0018491715   20.685823      19.115333      1.5704901     -1.46511        18334.72     
    991000   1.1669184      0.0023323615   0.00018693083  20.794331      19.061457      1.7328738     -1.4809446      18276.737    
    992000   0.97705964     0.0023323615  -0.0023666172   20.763583      19.312649      1.4509336     -1.4124054      18300.727    
    993000   1.0786906      0.0023323615   0.0026994089   20.691396      19.089541      1.6018555     -1.499824       18348.566    
    994000   1.0670032      0.0023323615   0.0044853801   20.670106      19.085606      1.5844997     -1.4318916      18370.621    
    995000   0.9622668      0.0023323615  -0.0012791247   20.383628      18.954662      1.4289662     -1.5597597      18256.035    
    996000   0.98071139     0.0023323615  -0.0061021128   20.53023       19.073874      1.4563564     -1.5306064      18425.978    
    997000   1.1075347      0.0023323615   0.0027691751   20.980118      19.335429      1.6446891     -1.3378939      18303.298    
    998000   0.98200516     0.0023323615  -0.0023017605   20.409536      18.951259      1.4582777     -1.509996       18387.634    
    999000   0.974406       0.0023323615   0.00019194685  20.626929      19.179936      1.4469929     -1.3067697      18399.969    
   1000000   1.130234       0.0023323615  -2.7245576e-05  20.906459      19.228062      1.6783976     -1.3478983      18529.345    
Loop time of 54.3629 on 1 procs for 1000000 steps with 100 atoms

Performance: 7946593.195 tau/day, 18394.892 timesteps/s
99.3% CPU use with 1 MPI tasks x 1 OpenMP threads

MPI task timing breakdown:
Section |  min time  |  avg time  |  max time  |%varavg| %total
---------------------------------------------------------------
Pair    | 45.374     | 45.374     | 45.374     |   0.0 | 83.46
Bond    | 1.2599     | 1.2599     | 1.2599     |   0.0 |  2.32
Neigh   | 3.8107     | 3.8107     | 3.8107     |   0.0 |  7.01
Comm    | 1.3863     | 1.3863     | 1.3863     |   0.0 |  2.55
Output  | 0.21118    | 0.21118    | 0.21118    |   0.0 |  0.39
Modify  | 1.9688     | 1.9688     | 1.9688     |   0.0 |  3.62
Other   |            | 0.3523     |            |       |  0.65

Nlocal:            100 ave         100 max         100 min
Histogram: 1 0 0 0 0 0 0 0 0 0
Nghost:            340 ave         340 max         340 min
Histogram: 1 0 0 0 0 0 0 0 0 0
Neighs:           4850 ave        4850 max        4850 min
Histogram: 1 0 0 0 0 0 0 0 0 0

Total # of neighbors = 4850
Ave neighs/atom = 48.5
Ave special neighs/atom = 1.98
Neighbor list builds = 97878
Dangerous builds = 79952

write_data      ${outputfile_assembled} nofix nocoeff
write_data      7_assembled.data nofix nocoeff
System init for write_data ...
Generated 0 of 6 mixed pair_coeff terms from geometric mixing rule

Total wall time: 0:00:55
