LAMMPS (23 Jun 2022 - Update 1)
OMP_NUM_THREADS environment is not set. Defaulting to 1 thread. (src/comm.cpp:98)
  using 1 OpenMP thread(s) per MPI task


variable        runtime equal 1000000
variable		subsample_rate equal 1000

variable		outputfile_created string '3_created.data'
variable		outputfile_relaxed string '5_relaxed.data'
variable		outputfile_selfasb string '6_a_self_assemble.lammpstrj'
variable		outputfile_trajlin string '6_b_trajlin.data'
variable		outputfile_assembled string '7_assembled.data'

units           lj
atom_style      full
dimension       3
boundary        p p p
timestep        0.005

read_data       ${outputfile_created}
read_data       3_created.data
Reading data file ...
  orthogonal box = (0 0 0) to (35 35 35)
  1 by 1 by 1 MPI processor grid
  reading atoms ...
  100 atoms
  reading velocities ...
  100 velocities
  scanning bonds ...
  1 = max bonds/atom
  reading bonds ...
  99 bonds
Finding 1-2 1-3 1-4 neighbors ...
  special bond factors lj:    0        0        0       
  special bond factors coul:  0        0        0       
     2 = max # of 1-2 neighbors
     2 = max # of 1-3 neighbors
     4 = max # of 1-4 neighbors
     6 = max # of special neighbors
  special bonds CPU = 0.000 seconds
  read_data CPU = 0.005 seconds

bond_style      fene
bond_coeff      * 30.0 1.5 1.0 1.0
special_bonds   fene
Finding 1-2 1-3 1-4 neighbors ...
  special bond factors lj:    0        1        1       
  special bond factors coul:  0        1        1       
     2 = max # of 1-2 neighbors
     6 = max # of special neighbors
  special bonds CPU = 0.000 seconds

variable        Temp equal 1.0
variable        velSeed equal 926458

velocity        all create ${Temp} ${velSeed}
velocity        all create 1 ${velSeed}
velocity        all create 1 926458

### Output
thermo_style    custom step temp density press etotal pe ke epair spcpu
thermo          1000

###########################################################################
# Soft relaxation (to remove overlaps of particles)
######################################################################

pair_style      soft 1.0
pair_coeff      * * 0.0
variable        prefactor equal ramp(0,300)
fix             rampSoft all adapt 1 pair soft a * * v_prefactor

minimize        0.0 1.0e-8 1000 100000
WARNING: Using 'neigh_modify every 1 delay 0 check yes' setting during minimization (src/min.cpp:187)
Generated 0 of 6 mixed pair_coeff terms from geometric mixing rule
Neighbor list info ...
  update every 1 steps, delay 0 steps, check yes
  max neighbors/atom: 2000, page size: 100000
  master list distance cutoff = 1.3
  ghost atom cutoff = 1.3
  binsize = 0.65, bins = 54 54 54
  1 neighbor lists, perpetual/occasional/extra = 1 0 0
  (1) pair soft, perpetual
      attributes: half, newton on
      pair build: half/bin/newton
      stencil: half/bin/3d
      bin: standard
WARNING: Communication cutoff 1.3 is shorter than a bond length based estimate of 1.7550000000000001. This may lead to errors. (src/comm.cpp:727)
Per MPI rank memory allocation (min/avg/max) = 8.346 | 8.346 | 8.346 Mbytes
   Step          Temp         Density         Press          TotEng         PotEng         KinEng         E_pair         S/CPU     
         0   1              0.0023323615  -0.0039617958   21.524174      20.039174      1.485          0              0            
       362   1              0.0023323615   0.0023090379   21.485548      20.000548      1.485          0              68910.759    
Loop time of 0.00525644 on 1 procs for 362 steps with 100 atoms

97.1% CPU use with 1 MPI tasks x 1 OpenMP threads

Minimization stats:
  Stopping criterion = force tolerance
  Energy initial, next-to-last, final = 
      20.0391741078675   20.0005480767337   20.0005480767337
  Force two-norm initial, final = 11.878422 7.9509778e-09
  Force max component initial, final = 6.6117807 1.3572772e-09
  Final line search alpha, max atom move = 1 1.3572772e-09
  Iterations, force evaluations = 362 738

MPI task timing breakdown:
Section |  min time  |  avg time  |  max time  |%varavg| %total
---------------------------------------------------------------
Pair    | 0.00021467 | 0.00021467 | 0.00021467 |   0.0 |  4.08
Bond    | 0.0023459  | 0.0023459  | 0.0023459  |   0.0 | 44.63
Neigh   | 0.0015101  | 0.0015101  | 0.0015101  |   0.0 | 28.73
Comm    | 0.00018819 | 0.00018819 | 0.00018819 |   0.0 |  3.58
Output  | 0          | 0          | 0          |   0.0 |  0.00
Modify  | 0          | 0          | 0          |   0.0 |  0.00
Other   |            | 0.0009975  |            |       | 18.98

Nlocal:            100 ave         100 max         100 min
Histogram: 1 0 0 0 0 0 0 0 0 0
Nghost:             20 ave          20 max          20 min
Histogram: 1 0 0 0 0 0 0 0 0 0
Neighs:              0 ave           0 max           0 min
Histogram: 1 0 0 0 0 0 0 0 0 0

Total # of neighbors = 0
Ave neighs/atom = 0
Ave special neighs/atom = 1.98
Neighbor list builds = 17
Dangerous builds = 0

fix             nvtSoft all nvt temp ${Temp} ${Temp} 0.5
fix             nvtSoft all nvt temp 1 ${Temp} 0.5
fix             nvtSoft all nvt temp 1 1 0.5
run             100000
Generated 0 of 6 mixed pair_coeff terms from geometric mixing rule
WARNING: Communication cutoff 1.3 is shorter than a bond length based estimate of 1.7550000000000001. This may lead to errors. (src/comm.cpp:727)
Per MPI rank memory allocation (min/avg/max) = 7.221 | 7.221 | 7.221 Mbytes
   Step          Temp         Density         Press          TotEng         PotEng         KinEng         E_pair         S/CPU     
       362   1              0.0023323615   0.0023090379   21.485548      20.000548      1.485          0              0            
      1000   0.90989032     0.0023323615  -0.0021940042   21.776974      20.425787      1.3511871      0.00036425437  75428.307    
      2000   0.86546688     0.0023323615   0.0034714157   21.677128      20.39191       1.2852183      0.0025814786   74453.799    
      3000   0.98199538     0.0023323615   0.0028144228   21.866132      20.407869      1.4582631      0.0011756043   73338.511    
      4000   1.004495       0.0023323615  -0.0014058211   21.945624      20.453949      1.4916751      0.011986179    74637.805    
      5000   1.1222705      0.0023323615   0.0044495116   21.986385      20.319813      1.6665718      0.0050317639   74938.504    
      6000   1.0538243      0.0023323615   0.0023957538   21.985713      20.420784      1.564929       0.012100514    75542.703    
      7000   1.0210598      0.0023323615  -0.00038820026  21.904665      20.388391      1.5162738      0              77290.301    
      8000   0.94819751     0.0023323615   0.0024943091   21.747889      20.339816      1.4080733      0              76943.36     
      9000   0.92364502     0.0023323615   0.0020053029   21.724166      20.352554      1.3716129      1.7780894e-05  76402.797    
     10000   0.86685188     0.0023323615   0.00078277366  21.644879      20.357604      1.287275       0.0098636418   76009.201    
     11000   1.0057103      0.0023323615   0.00010113276  21.8558        20.362321      1.4934798      0.020705341    76325.559    
     12000   0.97901664     0.0023323615  -0.0026996968   21.871206      20.417366      1.4538397      0.0052928539   76172.543    
     13000   0.97718436     0.0023323615  -6.1641422e-06  21.963706      20.512587      1.4511188      0.025022446    75893.091    
     14000   1.0530014      0.0023323615  -0.0009993112   21.947994      20.384287      1.5637071      0.0020860456   75267.958    
     15000   0.99094527     0.0023323615   0.0011068478   21.895146      20.423592      1.4715537      0.0015091113   76062.662    
     16000   0.91285091     0.0023323615  -0.00025424173  21.87524       20.519657      1.3555836      0.0047853639   75767.035    
     17000   0.82806978     0.0023323615  -0.00054698156  21.701984      20.472301      1.2296836      0              75977.606    
     18000   1.043278       0.0023323615  -6.6143919e-05  22.003299      20.454031      1.5492679      0.0034319132   76647.341    
     19000   1.0879249      0.0023323615  -0.0017804642   21.998985      20.383416      1.6155685      0.015376175    75170.799    
     20000   1.1144506      0.0023323615   0.0025198298   22.190904      20.535944      1.6549592      0              76538.137    
     21000   1.0427751      0.0023323615   0.0011345349   22.099492      20.550971      1.548521       0.00040047813  76668.532    
     22000   1.0586695      0.0023323615   0.0017882747   22.05673       20.484606      1.5721242      0              76411.222    
     23000   1.0058426      0.0023323615  -0.0055245362   21.954628      20.460951      1.4936763      0.0027619031   75456.647    
     24000   0.98273442     0.0023323615   0.0015147357   21.862067      20.402707      1.4593606      0              75872.373    
     25000   0.95835343     0.0023323615   0.0017808774   21.937761      20.514606      1.4231548      0.00020839942  75794.37     
     26000   0.93993778     0.0023323615  -0.0021777292   21.884849      20.489042      1.3958076      0.0088889834   76146.216    
     27000   0.9308188      0.0023323615  -0.00011239942  21.842252      20.459986      1.3822659      0.021612409    75244.754    
     28000   1.0149581      0.0023323615   0.0041996387   21.906846      20.399633      1.5072129      0.0064059022   75709.563    
     29000   0.92841138     0.0023323615  -2.5398808e-05  21.987185      20.608494      1.3786909      0.0046112484   75711.289    
     30000   1.021043       0.0023323615   0.001589158    22.097958      20.581709      1.5162489      0.016799508    73936.913    
     31000   1.0465985      0.0023323615  -0.0021744286   22.037917      20.483718      1.5541987      0.0057879149   76212.269    
     32000   0.98907108     0.0023323615  -0.0015558606   22.044089      20.575318      1.4687705      0.009448173    75961.129    
     33000   1.0918536      0.0023323615  -0.0025643847   22.039275      20.417873      1.6214025      0              74877.056    
     34000   0.99801543     0.0023323615   0.0016279766   21.932339      20.450286      1.4820529      0.017384617    77319.817    
     35000   1.0352271      0.0023323615  -0.0052971711   22.076004      20.538692      1.5373122      0.00010473809  75926.979    
     36000   1.1141579      0.0023323615  -0.00093279925  22.222491      20.567966      1.6545245      0.00033678641  76992.915    
     37000   1.0369415      0.0023323615   0.00013065175  22.217841      20.677983      1.5398581      0.013788831    76141.577    
     38000   1.0515596      0.0023323615   0.0021717558   22.070766      20.5092        1.561566       0.0067894678   76563.611    
     39000   1.0238495      0.0023323615   0.00026414509  22.040141      20.519725      1.5204165      0.00044464649  75775.498    
     40000   1.0749111      0.0023323615  -0.0026849368   22.039327      20.443084      1.596243       0.012651334    74237.11     
     41000   0.99070886     0.0023323615  -0.0030385564   22.03241       20.561207      1.4712027      0.00092855646  77448.811    
     42000   0.95315224     0.0023323615   0.0019788197   21.965263      20.549832      1.4154311      0.020233689    75756.629    
     43000   1.0644183      0.0023323615  -0.0011168725   22.287172      20.706511      1.5806611      0.039694129    75526.242    
     44000   1.0253747      0.0023323615  -0.006676522    22.066233      20.543552      1.5226814      0              74813.805    
     45000   0.94179556     0.0023323615  -0.0047206018   21.970644      20.572077      1.3985664      0.019869988    75428.189    
     46000   1.0083495      0.0023323615  -0.0017646918   21.972114      20.474715      1.497399       0.00026040605  75509.966    
     47000   0.98767959     0.0023323615  -0.00080218158  22.091674      20.62497       1.4667042      0.024266258    75283.059    
     48000   1.1473449      0.0023323615  -0.0025885687   22.080512      20.376705      1.7038072      0.00065962995  75513.558    
     49000   1.0679312      0.0023323615   0.0017688272   21.970482      20.384604      1.5858779      0.014142422    76940.69     
     50000   0.9581935      0.0023323615   0.0014398836   21.955202      20.532284      1.4229173      0.0055011948   76360.132    
     51000   1.0215759      0.0023323615  -0.00093292688  21.934681      20.41764       1.5170402      0              75975.176    
     52000   0.98079591     0.0023323615   0.0040701936   21.977374      20.520892      1.4564819      0.0020862422   76298.841    
     53000   1.0090927      0.0023323615   0.0013324753   22.095438      20.596935      1.4985027      0              75883.508    
     54000   0.97519627     0.0023323615   0.0013260734   22.070151      20.621984      1.4481665      0.026885444    76857.925    
     55000   1.1805087      0.0023323615  -0.001586238    22.424088      20.671033      1.7530554      0.024690954    76478.665    
     56000   0.98387121     0.0023323615   0.0037155145   22.104425      20.643376      1.4610487      0.01435493     76001.616    
     57000   1.0723812      0.0023323615  -0.0037916262   22.122726      20.53024       1.592486       0.013635549    76453.95     
     58000   1.0152349      0.0023323615   0.00021908047  22.082827      20.575203      1.5076238      0.00077375639  76371.288    
     59000   1.1424502      0.0023323615  -0.0052108657   22.30072       20.604182      1.6965385      0.013308184    76899.492    
     60000   1.0359703      0.0023323615  -0.00097887545  22.188218      20.649802      1.538416       0.00011346294  75714.505    
     61000   1.1646839      0.0023323615  -0.002085017    22.239945      20.51039       1.7295556      0.012918477    77717.227    
     62000   1.101836       0.0023323615   0.0010338878   22.171386      20.53516       1.6362265      0.001396566    76575.125    
     63000   0.96616435     0.0023323615   0.00097550571  21.903821      20.469067      1.4347541      0.013027663    77836.137    
     64000   1.0068907      0.0023323615  -0.0020278726   22.061652      20.566419      1.4952327      0.013750276    76261.468    
     65000   0.98723233     0.0023323615   0.0022441476   22.031073      20.565033      1.46604        0.0066686189   76935.475    
     66000   1.0273881      0.0023323615  -0.0003515278   22.183579      20.657908      1.5256713      0              75066.548    
     67000   0.96528212     0.0023323615  -0.00014822656  21.9396        20.506156      1.4334439      0.010365557    76898.487    
     68000   1.069702       0.0023323615   9.4754668e-05  22.081119      20.492611      1.5885075      0.00049153926  73670.274    
     69000   1.1229502      0.0023323615   0.0011504079   22.200329      20.532748      1.6675811      0.0068454249   76973.086    
     70000   1.0062775      0.0023323615  -0.00085311964  22.094021      20.599699      1.4943221      0.013222355    75438.05     
     71000   1.0906935      0.0023323615   0.00015260357  22.145362      20.525682      1.6196798      0.018338513    76179.582    
     72000   1.010401       0.0023323615  -6.0487182e-06  22.154105      20.653659      1.5004455      0.0013793953   74914.65     
     73000   1.1177599      0.0023323615  -0.0034084797   22.254435      20.594562      1.6598735      0.00011231735  77733.932    
     74000   0.9768019      0.0023323615   0.00016143893  22.07312       20.622569      1.4505508      0.0084515956   75758.586    
     75000   1.1360996      0.0023323615   0.002159116    22.161595      20.474487      1.6871079      0.0089909162   76433.514    
     76000   0.97379329     0.0023323615  -0.00068458621  21.988928      20.542845      1.446083       0              75681.951    
     77000   0.94876793     0.0023323615  -0.0016073976   21.923496      20.514575      1.4089204      0.017745108    75458.07     
     78000   0.83947996     0.0023323615  -0.00062768559  21.726727      20.480099      1.2466277      0.0054510099   76051.301    
     79000   1.0090614      0.0023323615  -0.00080262643  22.068192      20.569736      1.4984562      0.00023011166  76958.667    
     80000   1.1217643      0.0023323615  -0.0038177864   22.367902      20.702082      1.66582        0.032902439    76298.375    
     81000   1.0240158      0.0023323615   0.00023547123  22.031597      20.510933      1.5206635      0.0068767308   75654.016    
     82000   1.003236       0.0023323615  -0.0022802982   21.894199      20.404393      1.4898055      0.019136282    74839.611    
     83000   1.0554159      0.0023323615   0.004011718    22.104562      20.537269      1.5672927      0.0080869707   74470.017    
     84000   0.83527346     0.0023323615  -0.0034122221   21.874648      20.634267      1.2403811      0.0030083664   75810.023    
     85000   1.036002       0.0023323615   0.0013573923   21.962923      20.42446       1.5384629      0.015709144    76440.309    
     86000   0.9432002      0.0023323615  -0.0032183248   21.913588      20.512936      1.4006523      0.013730309    76340.855    
     87000   0.95566008     0.0023323615  -0.00049614223  21.91653       20.497375      1.4191552      0.0035862035   75549.625    
     88000   0.93373351     0.0023323615  -0.00097093893  21.870485      20.483891      1.3865943      0.0018212145   75353.822    
     89000   0.9684944      0.0023323615  -0.00047342045  21.973429      20.535215      1.4382142      0.00087524744  75533.79     
     90000   0.98293324     0.0023323615  -0.0032204602   22.050919      20.591263      1.4596559      0.015353933    76824.145    
     91000   1.0832827      0.0023323615   0.0048517083   22.11977       20.511095      1.6086749      0.0052867789   77708.452    
     92000   0.85899662     0.0023323615  -0.0013049519   21.765697      20.490087      1.27561        0.0024124001   76568.254    
     93000   0.96176266     0.0023323615  -4.4223672e-05  21.874222      20.446004      1.4282176      0.0045653365   77276.48     
     94000   0.96019503     0.0023323615   0.00024459347  21.944954      20.519064      1.4258896      3.8053462e-05  76553.518    
     95000   0.94702149     0.0023323615  -0.0033658915   21.86315       20.456823      1.4063269      0              77366.087    
     96000   0.91119348     0.0023323615  -0.0013197298   21.825018      20.471896      1.3531223      0.00043282989  76028.184    
     97000   1.0016687      0.0023323615  -0.0019514304   22.013024      20.525546      1.487478       0.0048369955   75450.025    
     98000   1.02143        0.0023323615  -0.0057874974   22.177965      20.661142      1.5168235      0              74354.91     
     99000   1.032786       0.0023323615   0.0018228259   21.975336      20.441649      1.5336871      7.1595851e-05  77464.68     
    100000   1.0594928      0.0023323615   0.0036169719   22.011024      20.437677      1.5733468      0.00032948157  75760.882    
    100362   1.1904942      0.0023323615  -0.00089755607  22.316856      20.548972      1.7678839      0.00063845255  75425.293    
Loop time of 1.31607 on 1 procs for 100000 steps with 100 atoms

Performance: 32825103.372 tau/day, 75984.036 timesteps/s
99.4% CPU use with 1 MPI tasks x 1 OpenMP threads

MPI task timing breakdown:
Section |  min time  |  avg time  |  max time  |%varavg| %total
---------------------------------------------------------------
Pair    | 0.050871   | 0.050871   | 0.050871   |   0.0 |  3.87
Bond    | 0.12862    | 0.12862    | 0.12862    |   0.0 |  9.77
Neigh   | 0.80225    | 0.80225    | 0.80225    |   0.0 | 60.96
Comm    | 0.05519    | 0.05519    | 0.05519    |   0.0 |  4.19
Output  | 0.0010351  | 0.0010351  | 0.0010351  |   0.0 |  0.08
Modify  | 0.2446     | 0.2446     | 0.2446     |   0.0 | 18.59
Other   |            | 0.0335     |            |       |  2.55

Nlocal:            100 ave         100 max         100 min
Histogram: 1 0 0 0 0 0 0 0 0 0
Nghost:             60 ave          60 max          60 min
Histogram: 1 0 0 0 0 0 0 0 0 0
Neighs:             36 ave          36 max          36 min
Histogram: 1 0 0 0 0 0 0 0 0 0

Total # of neighbors = 36
Ave neighs/atom = 0.36
Ave special neighs/atom = 1.98
Neighbor list builds = 9821
Dangerous builds = 8265
unfix           nvtSoft
unfix           rampSoft
reset_timestep  0

write_data      ${outputfile_relaxed}
write_data      5_relaxed.data
System init for write_data ...
Generated 0 of 6 mixed pair_coeff terms from geometric mixing rule
WARNING: Communication cutoff 1.3 is shorter than a bond length based estimate of 1.7550000000000001. This may lead to errors. (src/comm.cpp:727)
WARNING: Not all mixed pair coeffs generated from mixing. Use write_data with 'pair ij' option to store all pair coeffs. (src/write_data.cpp:309)

###########################################################################
# Full LJ with Coulomb
######################################################################

# Cutoffs and parameters:
# - Values: Marcel Verkade's Bachelor Thesis
# - Mapping to atom groups: Patrick Onck's paper
# - 1: aliphatic, 2: aromatic, 3: anion, 4: cation
# pair_style	lj/cut/coul/cut <lj_cut_global> <coul_cut_global>
# pair_coeff	<type_1>  <type_2>  <eps>  <sigma>  <r_cut_lj>  <r_cut_coul>

# Problem: Onck's model is much more complex, and Marcel has no sigma reported
# Using sigma=1 randomly

variable		glob_ljeps equal 1.0
variable		glob_ljsig 	equal 1.0
variable		glob_coulcut equal 10.0
variable		att_ljcut equal 2.50
variable		rep_ljcut equal 1.12

pair_style		lj/cut/coul/cut 						${att_ljcut} 	${glob_coulcut}
pair_style		lj/cut/coul/cut 						2.5 	${glob_coulcut}
pair_style		lj/cut/coul/cut 						2.5 	10
pair_coeff		1 1 	${glob_ljeps} 	${glob_ljsig}	${att_ljcut} 	${glob_coulcut}
pair_coeff		1 1 	1 	${glob_ljsig}	${att_ljcut} 	${glob_coulcut}
pair_coeff		1 1 	1 	1	${att_ljcut} 	${glob_coulcut}
pair_coeff		1 1 	1 	1	2.5 	${glob_coulcut}
pair_coeff		1 1 	1 	1	2.5 	10
pair_coeff		1 2 	${glob_ljeps} 	${glob_ljsig}	${att_ljcut} 	${glob_coulcut}
pair_coeff		1 2 	1 	${glob_ljsig}	${att_ljcut} 	${glob_coulcut}
pair_coeff		1 2 	1 	1	${att_ljcut} 	${glob_coulcut}
pair_coeff		1 2 	1 	1	2.5 	${glob_coulcut}
pair_coeff		1 2 	1 	1	2.5 	10
pair_coeff		1 3 	${glob_ljeps} 	${glob_ljsig}	${rep_ljcut} 	${glob_coulcut}
pair_coeff		1 3 	1 	${glob_ljsig}	${rep_ljcut} 	${glob_coulcut}
pair_coeff		1 3 	1 	1	${rep_ljcut} 	${glob_coulcut}
pair_coeff		1 3 	1 	1	1.12 	${glob_coulcut}
pair_coeff		1 3 	1 	1	1.12 	10
pair_coeff		1 4 	${glob_ljeps} 	${glob_ljsig}	${rep_ljcut} 	${glob_coulcut}
pair_coeff		1 4 	1 	${glob_ljsig}	${rep_ljcut} 	${glob_coulcut}
pair_coeff		1 4 	1 	1	${rep_ljcut} 	${glob_coulcut}
pair_coeff		1 4 	1 	1	1.12 	${glob_coulcut}
pair_coeff		1 4 	1 	1	1.12 	10
pair_coeff		2 2 	${glob_ljeps} 	${glob_ljsig}	${att_ljcut} 	${glob_coulcut}
pair_coeff		2 2 	1 	${glob_ljsig}	${att_ljcut} 	${glob_coulcut}
pair_coeff		2 2 	1 	1	${att_ljcut} 	${glob_coulcut}
pair_coeff		2 2 	1 	1	2.5 	${glob_coulcut}
pair_coeff		2 2 	1 	1	2.5 	10
pair_coeff		2 3 	${glob_ljeps} 	${glob_ljsig}	${rep_ljcut} 	${glob_coulcut}
pair_coeff		2 3 	1 	${glob_ljsig}	${rep_ljcut} 	${glob_coulcut}
pair_coeff		2 3 	1 	1	${rep_ljcut} 	${glob_coulcut}
pair_coeff		2 3 	1 	1	1.12 	${glob_coulcut}
pair_coeff		2 3 	1 	1	1.12 	10
pair_coeff		2 4 	${glob_ljeps} 	${glob_ljsig}	${att_ljcut} 	${glob_coulcut}
pair_coeff		2 4 	1 	${glob_ljsig}	${att_ljcut} 	${glob_coulcut}
pair_coeff		2 4 	1 	1	${att_ljcut} 	${glob_coulcut}
pair_coeff		2 4 	1 	1	2.5 	${glob_coulcut}
pair_coeff		2 4 	1 	1	2.5 	10
pair_coeff		3 3 	${glob_ljeps} 	${glob_ljsig}	${rep_ljcut} 	${glob_coulcut}
pair_coeff		3 3 	1 	${glob_ljsig}	${rep_ljcut} 	${glob_coulcut}
pair_coeff		3 3 	1 	1	${rep_ljcut} 	${glob_coulcut}
pair_coeff		3 3 	1 	1	1.12 	${glob_coulcut}
pair_coeff		3 3 	1 	1	1.12 	10
pair_coeff		3 4 	${glob_ljeps} 	${glob_ljsig}	${att_ljcut} 	${glob_coulcut}
pair_coeff		3 4 	1 	${glob_ljsig}	${att_ljcut} 	${glob_coulcut}
pair_coeff		3 4 	1 	1	${att_ljcut} 	${glob_coulcut}
pair_coeff		3 4 	1 	1	2.5 	${glob_coulcut}
pair_coeff		3 4 	1 	1	2.5 	10
pair_coeff		4 4 	${glob_ljeps} 	${glob_ljsig}	${rep_ljcut} 	${glob_coulcut}
pair_coeff		4 4 	1 	${glob_ljsig}	${rep_ljcut} 	${glob_coulcut}
pair_coeff		4 4 	1 	1	${rep_ljcut} 	${glob_coulcut}
pair_coeff		4 4 	1 	1	1.12 	${glob_coulcut}
pair_coeff		4 4 	1 	1	1.12 	10


fix             noDriftRot 	all momentum 10 linear 1 1 1 angular
fix             nvt1 		all nvt temp ${Temp} ${Temp} 0.5
fix             nvt1 		all nvt temp 1 ${Temp} 0.5
fix             nvt1 		all nvt temp 1 1 0.5

# dump          assemble 	all custom 1000 				${outputfile_selfasb} id type xu yu zu vx vy vz
dump            lindump 	all custom ${subsample_rate} 	${outputfile_trajlin} id type xu yu zu vx vy vz
dump            lindump 	all custom 1000 	${outputfile_trajlin} id type xu yu zu vx vy vz
dump            lindump 	all custom 1000 	6_b_trajlin.data id type xu yu zu vx vy vz

run             ${runtime}
run             1000000
Generated 0 of 6 mixed pair_coeff terms from geometric mixing rule
Neighbor list info ...
  update every 1 steps, delay 10 steps, check yes
  max neighbors/atom: 2000, page size: 100000
  master list distance cutoff = 10.3
  ghost atom cutoff = 10.3
  binsize = 5.15, bins = 7 7 7
  1 neighbor lists, perpetual/occasional/extra = 1 0 0
  (1) pair lj/cut/coul/cut, perpetual
      attributes: half, newton on
      pair build: half/bin/newton
      stencil: half/bin/3d
      bin: standard
Per MPI rank memory allocation (min/avg/max) = 7.712 | 7.712 | 7.712 Mbytes
   Step          Temp         Density         Press          TotEng         PotEng         KinEng         E_pair         S/CPU     
         0   1.1904942      0.0023323615  -0.0012109062   21.93219       20.164306      1.7678839     -0.38402782     0            
      1000   1.0994852      0.0023323615   0.0031916562   21.449209      19.816473      1.6327355     -0.65449335     33457.672    
      2000   1.0005718      0.0023323615  -0.0023622043   21.243757      19.757908      1.4858492     -0.73325961     30542.033    
      3000   1.0527172      0.0023323615   0.0014319404   21.212482      19.649197      1.563285      -0.86556975     26626.683    
      4000   0.99524639     0.0023323615   0.0022185832   21.190361      19.71242       1.4779409     -0.85100771     21108.105    
      5000   0.86622904     0.0023323615  -0.00042812883  20.564646      19.278296      1.2863501     -1.1459934      18493.444    
      6000   0.83657221     0.0023323615   0.0012704812   20.625393      19.383083      1.2423097     -1.209808       18727.367    
      7000   1.0419316      0.0023323615  -0.0024050995   21.051891      19.504623      1.5472685     -0.95484676     18816.532    
      8000   0.97890574     0.0023323615  -0.0013621826   20.968694      19.515019      1.453675      -1.1153782      18811.014    
      9000   1.0406295      0.0023323615   0.00097237249  20.964159      19.418824      1.5453348     -1.0493494      18613.168    
     10000   0.79935616     0.0023323615  -0.0010215957   20.610936      19.423892      1.1870439     -0.99028004     18809.157    
     11000   0.94733783     0.0023323615  -0.00042874004  20.833683      19.426886      1.4067967     -1.1722471      19001.116    
     12000   1.1700932      0.0023323615   0.0031021745   21.184624      19.447035      1.7375884     -1.0744468      18921.342    
     13000   0.97827876     0.0023323615  -0.0035714766   20.849339      19.396595      1.452744      -1.1032782      18814.007    
     14000   0.96445236     0.0023323615  -0.0025835091   20.777401      19.345189      1.4322118     -1.1418917      18709.972    
     15000   0.95135679     0.0023323615   0.00023974364  20.796789      19.384025      1.4127648     -1.0706899      18664.245    
     16000   0.88296453     0.0023323615  -0.0033893472   20.892773      19.581571      1.3112023     -0.94364854     18746.11     
     17000   0.93694552     0.0023323615  -0.0012477207   20.678185      19.286821      1.3913641     -1.2176067      18724.11     
     18000   0.97227061     0.0023323615  -0.00090380709  20.706614      19.262792      1.4438219     -1.1437484      18604.492    
     19000   0.87382059     0.0023323615   0.00067588951  20.668151      19.370528      1.2976236     -1.0762913      19055.027    
     20000   0.90462102     0.0023323615   0.0016315239   20.881762      19.5384        1.3433622     -0.98998622     19439.228    
     21000   0.87816021     0.0023323615  -0.0034969966   20.831163      19.527096      1.3040679     -0.95914759     19167.185    
     22000   0.95468669     0.0023323615   0.0029196119   20.98268       19.564971      1.4177097     -0.90690323     19062.08     
     23000   1.0374494      0.0023323615  -0.0021314634   20.899814      19.359202      1.5406124     -1.1371378      18905.659    
     24000   0.97989884     0.0023323615  -0.0028462716   20.933141      19.477991      1.4551498     -1.1969799      18653.871    
     25000   1.033928       0.0023323615  -0.00036691634  20.819841      19.284458      1.5353831     -1.2340847      18704.527    
     26000   0.99107651     0.0023323615  -0.00042122596  20.914562      19.442814      1.4717486     -1.0626268      18673.499    
     27000   1.0423078      0.0023323615  -0.00067580034  21.068678      19.520851      1.5478271     -0.96036058     18757.828    
     28000   1.0546846      0.0023323615  -0.0013247115   21.071937      19.50573       1.5662067     -0.97023076     18806.237    
     29000   1.0631909      0.0023323615   0.0032738207   20.941824      19.362986      1.5788385     -1.1688913      18774.382    
     30000   0.95212519     0.0023323615   0.0013861453   20.792386      19.378481      1.4139059     -1.1677641      18638.089    
     31000   0.99611483     0.0023323615  -0.0014223251   20.631523      19.152293      1.4792305     -1.3106012      18646.943    
     32000   1.0330393      0.0023323615  -0.0021021983   21.189775      19.655712      1.5340634     -0.90580158     19157.043    
     33000   0.94142675     0.0023323615  -0.0017838497   20.959478      19.561459      1.3980187     -0.96954943     19357.118    
     34000   1.0031251      0.0023323615  -0.0022009862   21.024461      19.534821      1.4896408     -1.0155898      18775.41     
     35000   0.83565292     0.0023323615  -0.001796657    20.531007      19.290063      1.2409446     -1.2535345      18612.693    
     36000   1.0167856      0.0023323615   0.00079128974  20.724611      19.214684      1.5099265     -1.3448851      18535.841    
     37000   0.95274491     0.0023323615   0.0024981774   20.826749      19.411923      1.4148262     -1.1923549      18604.186    
     38000   0.96936209     0.0023323615   0.0038520165   20.727997      19.288495      1.4395027     -1.2037591      18663.069    
     39000   0.83567498     0.0023323615   0.0014014074   20.558722      19.317745      1.2409774     -1.1952159      18770.22     
     40000   1.0589867      0.0023323615   0.00054786629  20.62439       19.051794      1.5725953     -1.3202532      18975.656    
     41000   1.0317581      0.0023323615   0.0046343976   20.888406      19.356245      1.5321608     -1.1756509      18757.535    
     42000   0.91801857     0.0023323615   0.0008639553   20.769531      19.406274      1.3632576     -1.1426174      18774.52     
     43000   0.98139706     0.0023323615  -0.00089184882  20.792974      19.335599      1.4573746     -1.0989995      18826.828    
     44000   1.0055869      0.0023323615  -0.0010470623   20.75098       19.257683      1.4932966     -1.2483759      18593.044    
     45000   0.80981829     0.0023323615   0.0015270326   20.418233      19.215653      1.2025802     -1.2445853      18496.549    
     46000   0.88984165     0.0023323615   0.0024142446   20.617295      19.295881      1.3214149     -1.2901467      18588.775    
     47000   0.83377892     0.0023323615   0.0031709799   20.741474      19.503312      1.2381617     -1.090747       18604.966    
     48000   0.93297596     0.0023323615   0.00051431677  20.671045      19.285576      1.3854693     -1.278371       18691.756    
     49000   1.0910832      0.0023323615  -0.0032373795   20.837183      19.216924      1.6202585     -1.2504154      18597.136    
     50000   1.0678317      0.0023323615   0.0040986094   20.768284      19.182554      1.5857301     -1.1542811      18618.029    
     51000   0.97702639     0.0023323615  -0.0017710433   20.822119      19.371235      1.4508842     -1.1673744      18607.492    
     52000   1.0094727      0.0023323615  -0.00035809804  20.769055      19.269988      1.4990669     -1.1376462      18646.588    
     53000   0.93333286     0.0023323615  -0.0016342282   20.697365      19.311366      1.3859993     -1.2015636      18717.937    
     54000   0.97661351     0.0023323615  -0.0028251047   20.603453      19.153182      1.4502711     -1.3013097      18440.499    
     55000   0.92195122     0.0023323615  -0.0020829412   20.996506      19.627409      1.3690976     -0.99195495     18626.698    
     56000   1.0506766      0.0023323615  -0.00077850099  20.953568      19.393314      1.5602547     -1.0980799      18977.94     
     57000   0.98950642     0.0023323615  -0.0013566497   20.781296      19.311879      1.469417      -1.2451398      19085.327    
     58000   0.90619099     0.0023323615  -0.0008598825   21.019005      19.673312      1.3456936     -0.97612425     18843.954    
     59000   0.99817719     0.0023323615  -0.0024904536   21.048865      19.566572      1.4822931     -1.0371438      18760.722    
     60000   0.94181976     0.0023323615   0.00064423587  20.820339      19.421736      1.3986023     -1.1221552      18548.569    
     61000   0.99858421     0.0023323615  -0.00065855937  21.095591      19.612694      1.4828976     -0.92995095     18714.775    
     62000   0.90770516     0.0023323615  -0.0014519241   20.893114      19.545172      1.3479422     -1.0559754      19261.234    
     63000   0.94602241     0.0023323615   0.00024401833  20.764037      19.359194      1.4048433     -1.0436284      19067.699    
     64000   1.0853202      0.0023323615  -0.0031869428   20.985764      19.374063      1.6117005     -1.0653245      19407.138    
     65000   0.9769867      0.0023323615   0.0010285487   20.833687      19.382862      1.4508252     -1.1220321      19082.514    
     66000   0.95240416     0.0023323615  -0.0021348666   20.937788      19.523468      1.4143202     -1.0177183      18718.983    
     67000   1.1510752      0.0023323615  -0.0041122999   21.091477      19.38213       1.7093467     -1.0974796      18697.572    
     68000   1.0343672      0.0023323615  -0.0050288435   20.625894      19.089859      1.5360353     -1.4351957      18398.594    
     69000   0.96649694     0.0023323615   0.0022508359   20.867496      19.432248      1.435248      -1.0000521      18465.697    
     70000   0.97322128     0.0023323615   0.00041971939  20.806948      19.361715      1.4452336     -1.1137641      18652.47     
     71000   1.0529735      0.0023323615   0.0010089747   21.16882       19.605154      1.5636656     -0.89915986     18726.278    
     72000   0.97639321     0.0023323615   0.00092231329  21.116416      19.666472      1.4499439     -0.93426777     18703.325    
     73000   0.88437163     0.0023323615  -0.0030619249   20.950686      19.637394      1.3132919     -0.92658472     19119.026    
     74000   1.0121104      0.0023323615  -0.003531887    20.869293      19.366309      1.502984      -1.1761874      18661.541    
     75000   0.88348331     0.0023323615  -0.00024006346  20.542087      19.230114      1.3119727     -1.2696585      18480.71     
     76000   0.95709975     0.0023323615   0.00035602704  20.75557       19.334277      1.4212931     -1.2373341      18405.749    
     77000   1.0730276      0.0023323615  -0.00073161485  21.221774      19.628328      1.593446      -0.98251214     18575.287    
     78000   0.9589456      0.0023323615  -0.0049951893   20.88606       19.462026      1.4240342     -1.1344334      18660.962    
     79000   0.93762466     0.0023323615   0.0025906173   20.786335      19.393962      1.3923726     -1.1184397      18602.567    
     80000   0.96790072     0.0023323615   0.0014238628   20.751993      19.31466       1.4373326     -1.136366       18576.877    
     81000   0.97288112     0.0023323615  -0.0031885344   20.704792      19.260063      1.4447285     -1.2822338      18272.619    
     82000   0.85758948     0.0023323615  -0.00096350671  20.603045      19.329525      1.2735204     -1.1782684      18441.381    
     83000   0.98884076     0.0023323615   0.0028346869   20.528942      19.060514      1.4684285     -1.3784161      18324.758    
     84000   0.95750792     0.0023323615   0.0005855843   20.842484      19.420585      1.4218993     -1.2060762      18409.076    
     85000   1.0004055      0.0023323615   0.0023620765   20.991681      19.506079      1.4856021     -1.0402821      18521.904    
     86000   0.99495507     0.0023323615  -0.0012883345   20.612661      19.135153      1.4775083     -1.3437209      18432.39     
     87000   0.94512913     0.0023323615   0.00293217     20.547892      19.144375      1.4035168     -1.3085457      18417.602    
     88000   0.83650555     0.0023323615   0.0071004871   20.654109      19.411898      1.2422107     -1.166801       18440.257    
     89000   0.91335564     0.0023323615   0.0048846744   20.606054      19.249721      1.3563331     -1.2963442      18328.789    
     90000   1.0069225      0.0023323615   0.00093041643  20.982264      19.486984      1.4952799     -1.1755188      18389.052    
     91000   0.93665876     0.0023323615  -0.0036724439   20.848162      19.457223      1.3909383     -1.0678554      18427.712    
     92000   1.1512242      0.0023323615  -0.0024294445   21.386422      19.676854      1.7095679     -0.9477318      18436.99     
     93000   0.87379535     0.0023323615  -0.0014223224   20.638742      19.341156      1.2975861     -1.1850436      18481.045    
     94000   1.0761942      0.0023323615   0.0019092201   20.975065      19.376917      1.5981484     -1.0631392      18528.357    
     95000   0.93104873     0.0023323615  -0.0017328279   20.940987      19.55838       1.3826074     -0.98125773     18583.404    
     96000   1.0597092      0.0023323615   0.00074382302  21.088345      19.514677      1.5736682     -1.1193203      18666.151    
     97000   1.1062455      0.0023323615   0.0039648275   20.916628      19.273853      1.6427745     -1.2745431      18546.801    
     98000   0.94055496     0.0023323615   0.00022165854  20.7564        19.359676      1.3967241     -1.1363908      18535.827    
     99000   1.0998551      0.0023323615  -8.1119246e-05  21.211061      19.577776      1.6332849     -1.075146       18711.961    
    100000   1.0741945      0.0023323615   0.00015962214  21.033964      19.438785      1.5951788     -1.22774        18644.857    
    101000   0.95062119     0.0023323615   0.00029750993  20.664941      19.253268      1.4116725     -1.383345       18364.042    
    102000   1.001065       0.0023323615   0.0013895666   20.572778      19.086196      1.4865816     -1.4289932      18391.234    
    103000   1.0776871      0.0023323615  -0.0025748334   21.095625      19.495259      1.6003654     -1.1114166      18424.616    
    104000   0.93175481     0.0023323615  -0.00043381098  20.724376      19.34072       1.3836559     -1.2155589      18676.112    
    105000   0.7723042      0.0023323615  -0.0020348297   20.623984      19.477112      1.1468717     -1.0424124      18490.731    
    106000   0.86444247     0.0023323615  -0.0017578237   20.617813      19.334116      1.2836971     -1.2152431      18628.557    
    107000   1.0512304      0.0023323615  -0.00056753808  21.069127      19.50805       1.5610772     -0.92356995     18779.264    
    108000   1.1116101      0.0023323615   0.0017336148   21.314523      19.663782      1.650741      -0.8866416      19040.288    
    109000   1.0821119      0.0023323615  -0.0011059325   21.204319      19.597383      1.6069361     -0.96396634     19030.98     
    110000   0.98174847     0.0023323615   0.00084772286  20.916051      19.458155      1.4578965     -1.1037585      18715.659    
    111000   0.98308368     0.0023323615  -0.00022801605  21.08089       19.621011      1.4598793     -0.91209594     18784.94     
    112000   1.0609316      0.0023323615   0.0017347857   21.057907      19.482423      1.5754835     -0.90825395     19056.545    
    113000   1.0042459      0.0023323615  -0.0028242747   21.262034      19.770729      1.4913051     -0.91844573     18863.904    
    114000   0.98914426     0.0023323615  -0.00053953688  20.772764      19.303885      1.4688792     -1.1941696      18750.79     
    115000   0.98808449     0.0023323615  -0.0014322807   20.900328      19.433023      1.4673055     -1.1265894      18425.752    
    116000   0.95884241     0.0023323615  -0.00088885596  20.859588      19.435707      1.423881      -1.1421436      18391.922    
    117000   0.96927613     0.0023323615   2.9026249e-05  20.89233       19.452955      1.4393751     -1.0595855      18780.664    
    118000   0.98200837     0.0023323615  -0.0016826167   20.837077      19.378795      1.4582824     -1.0483204      18979.715    
    119000   1.0881603      0.0023323615  -1.3015178e-05  21.170608      19.55469       1.615918      -0.9919462      18948.844    
    120000   1.1099473      0.0023323615  -0.0012747808   21.107626      19.459354      1.6482718     -1.102477       18714.68     
    121000   1.0379297      0.0023323615   0.00014904074  20.904178      19.362852      1.5413256     -1.1266278      18609.559    
    122000   0.93224318     0.0023323615  -0.0016864823   20.777396      19.393015      1.3843811     -1.0855262      18525.541    
    123000   1.0430831      0.0023323615  -0.0041184207   21.310983      19.762004      1.5489784     -0.82815273     18694.07     
    124000   1.043213       0.0023323615  -0.0032490699   21.029381      19.480209      1.5491714     -0.99897226     18758.265    
    125000   0.93158561     0.0023323615   0.0019500296   20.883096      19.499691      1.3834046     -1.0815209      18603.923    
    126000   0.95031645     0.0023323615  -0.0041599845   20.821263      19.410043      1.4112199     -1.1723072      18567.45     
    127000   0.95623898     0.0023323615   0.003519606    20.913593      19.493578      1.4200149     -1.0195317      18728.523    
    128000   1.0157226      0.0023323615   0.0015355516   20.709416      19.201068      1.5083481     -1.3009079      18719.517    
    129000   0.98069806     0.0023323615   0.00068188715  20.822354      19.366018      1.4563366     -1.1020578      18552.11     
    130000   0.8395177      0.0023323615  -0.00065849543  20.689416      19.442732      1.2466838     -1.1307172      18638.57     
    131000   0.98072033     0.0023323615   0.0030335918   20.891189      19.43482       1.4563697     -1.0421756      18864.992    
    132000   1.0804672      0.0023323615  -0.0016676957   21.226044      19.621551      1.6044937     -1.0146516      18814.23     
    133000   0.92144501     0.0023323615   0.0019049225   20.815505      19.447159      1.3683458     -1.1719239      18611.784    
    134000   0.98891862     0.0023323615   0.0013064387   20.688769      19.220225      1.4685441     -1.2634026      18555.896    
    135000   1.0202423      0.0023323615   0.0028152687   20.998173      19.483113      1.5150598     -1.0051388      18817.831    
    136000   0.94864326     0.0023323615  -0.00087459499  20.767819      19.359084      1.4087352     -1.0941466      18938.323    
    137000   0.97620345     0.0023323615  -0.000773848    20.774576      19.324914      1.4496621     -1.2148488      18792.636    
    138000   0.98003345     0.0023323615   0.001709287    20.989058      19.533709      1.4553497     -0.98297424     18513.38     
    139000   1.0004436      0.0023323615  -0.001508525    20.932276      19.446617      1.4856588     -1.0839867      18738.28     
    140000   0.99330306     0.0023323615   0.0011517233   21.077151      19.602096      1.475055      -1.0353956      18855.063    
    141000   0.95856958     0.0023323615   0.0012892602   20.970804      19.547328      1.4234758     -1.0257942      18954.515    
    142000   0.90230589     0.0023323615   0.0026161077   20.637454      19.29753       1.3399242     -1.118119       18909.28     
    143000   1.0580362      0.0023323615   0.0013235778   21.076273      19.505089      1.5711837     -1.2075645      19037.913    
    144000   1.0152689      0.0023323615   0.0037238884   21.010458      19.502783      1.5076743     -1.1004055      19356.795    
    145000   1.1121421      0.0023323615   0.00017559868  21.023896      19.372365      1.651531      -1.2341474      19052.932    
    146000   0.97706289     0.0023323615   0.0027988051   21.043649      19.59271       1.4509384     -0.9828232      19093.82     
    147000   0.99398645     0.0023323615  -0.001146083    20.96799       19.49192       1.4760699     -1.0608193      19121.715    
    148000   1.0471559      0.0023323615  -0.0010415931   20.742731      19.187705      1.5550264     -1.2090419      18849.064    
    149000   0.95985697     0.0023323615   9.8167602e-05  20.601068      19.175681      1.4253876     -1.2982769      18517.028    
    150000   1.0389365      0.0023323615   0.0034278647   20.964646      19.421825      1.5428206     -1.0384146      18602.095    
    151000   1.065904       0.0023323615  -0.0025837169   21.058539      19.475671      1.5828675     -1.0054597      18782.908    
    152000   0.95897179     0.0023323615  -0.0017479365   21.03817       19.614097      1.4240731     -0.93680775     18868.037    
    153000   0.92598443     0.0023323615   0.0044174005   20.715214      19.340128      1.3750869     -1.0356379      18961.785    
    154000   0.90524194     0.0023323615   0.00021647636  20.989528      19.645244      1.3442843     -0.90632996     19588.274    
    155000   0.934837       0.0023323615  -0.0016254383   20.651556      19.263323      1.3882329     -1.2141192      19874.437    
    156000   1.1464467      0.0023323615   0.001140856    21.170034      19.46756       1.7024734     -0.93840953     19043.314    
    157000   0.89991611     0.0023323615   9.5098678e-06  20.680467      19.344091      1.3363754     -1.0840045      18757.461    
    158000   1.1452626      0.0023323615   0.0006633582   20.831856      19.131141      1.7007149     -1.321818       18415.465    
    159000   0.94639911     0.0023323615  -0.0041274069   20.887079      19.481676      1.4054027     -1.1165149      18427.283    
    160000   1.0362024      0.0023323615   0.0015479421   20.971264      19.432504      1.5387606     -0.97208068     19045.327    
    161000   0.96808536     0.0023323615  -0.0022750747   21.101982      19.664376      1.4376068     -0.91837127     20414.861    
    162000   0.88484406     0.0023323615  -0.0056052099   21.077504      19.76351       1.3139934     -0.97630077     20399.478    
    163000   0.9239839      0.0023323615   0.00039057808  20.728413      19.356297      1.3721161     -1.1755502      20205.648    
    164000   0.99876603     0.0023323615   0.0033277282   20.976256      19.493088      1.4831676     -0.92548796     20119.676    
    165000   1.0432318      0.0023323615  -0.0042232667   21.137956      19.588757      1.5491992     -1.0055535      19555.986    
    166000   0.98218736     0.0023323615  -0.00092214009  20.96666       19.508111      1.4585482     -1.0795692      18922.171    
    167000   0.92136504     0.0023323615  -0.001187298    20.635424      19.267197      1.3682271     -1.1344537      18509.83     
    168000   0.94250162     0.0023323615  -0.0017422052   20.590634      19.191019      1.3996149     -1.3104382      18545.457    
    169000   0.84241801     0.0023323615  -0.0022931535   20.542837      19.291846      1.2509907     -1.1957981      18615.272    
    170000   1.0395578      0.0023323615   0.0020281266   21.050435      19.506692      1.5437433     -1.0168543      18808.111    
    171000   0.94235327     0.0023323615  -0.00097772897  20.682874      19.283479      1.3993946     -1.2558559      18856.755    
    172000   1.1527857      0.0023323615   0.0016560754   20.983408      19.271521      1.7118867     -1.2800489      18592.012    
    173000   1.0595759      0.0023323615   0.0046199932   20.906756      19.333286      1.5734702     -1.1548872      18519.378    
    174000   1.0626868      0.0023323615   0.00053890624  21.018687      19.440597      1.5780899     -1.0943339      18567.854    
    175000   1.0681925      0.0023323615  -0.0033909067   21.05446       19.468194      1.5862658     -1.1707481      18818.604    
    176000   1.0122456      0.0023323615  -0.00081854963  20.782614      19.27943       1.5031847     -1.2932013      18613.523    
    177000   1.1628774      0.0023323615  -0.0058924056   21.181641      19.454768      1.7268729     -1.1184496      18687.809    
    178000   0.8574167      0.0023323615  -0.0020634818   20.575448      19.302184      1.2732638     -1.1793646      18736.69     
    179000   1.0533684      0.0023323615   0.00014931455  21.146139      19.581887      1.564252      -0.9732768      18669.234    
    180000   1.0699362      0.0023323615  -0.0024435942   21.004542      19.415687      1.5888553     -1.171552       18810.568    
    181000   0.95750298     0.0023323615   0.0027965281   20.728199      19.306307      1.4218919     -1.2231455      18553.61     
    182000   0.92068728     0.0023323615  -0.0032207617   20.75893       19.39171       1.3672206     -1.1286038      18647.222    
    183000   1.0943478      0.0023323615  -0.00090832207  21.132         19.506894      1.6251065     -1.0295743      19015.277    
    184000   1.0688135      0.0023323615   0.002115353    21.043749      19.456561      1.587188      -1.1200229      18845.921    
    185000   1.0416836      0.0023323615  -0.0022882195   20.848492      19.301592      1.5469001     -1.1824292      18730.516    
    186000   0.99293968     0.0023323615   0.00060463508  20.803852      19.329337      1.4745154     -1.2280191      18779.699    
    187000   1.0856089      0.0023323615   0.0020213121   21.123968      19.511839      1.6121292     -1.0382668      18770.28     
    188000   1.0673679      0.0023323615   0.0027219753   20.936796      19.351754      1.5850413     -1.1053841      18707.928    
    189000   1.040279       0.0023323615   0.0014943615   20.887316      19.342502      1.5448143     -1.26457        18739.529    
    190000   1.0377723      0.0023323615  -0.0011530047   21.181478      19.640386      1.5410919     -0.95525557     18838.057    
    191000   1.0179993      0.0023323615   0.0012726557   20.973291      19.461562      1.511729      -0.93886934     18691.095    
    192000   0.92950495     0.0023323615   0.0045310853   20.983676      19.603361      1.3803149     -1.0396879      18815.326    
    193000   1.0508857      0.0023323615  -0.0056711802   20.8298        19.269235      1.5605652     -1.2729986      18564.19     
    194000   1.0349309      0.0023323615   0.0012233286   21.059158      19.522286      1.5368724     -1.065357       18701.45     
    195000   1.1546976      0.0023323615  -0.0019191034   21.317072      19.602346      1.7147259     -0.97218828     18750.139    
    196000   1.1218875      0.0023323615  -0.00021964507  21.063478      19.397475      1.666003      -1.1834381      18750.523    
    197000   1.0056831      0.0023323615   0.00027321078  21.006893      19.513453      1.4934394     -1.0120991      18780.236    
    198000   0.9643008      0.0023323615  -0.0015579917   20.961072      19.529085      1.4319867     -0.98746803     18952.715    
    199000   0.95745344     0.0023323615  -0.001215214    20.990998      19.569179      1.4218184     -1.0012571      18860.329    
    200000   1.069266       0.0023323615   0.0013518557   20.983116      19.395256      1.58786       -1.1059203      18792.983    
    201000   1.0811666      0.0023323615  -0.0021443994   21.383942      19.77841       1.6055323     -0.89831429     18829.041    
    202000   1.1006508      0.0023323615  -0.00071224384  21.117052      19.482585      1.6344664     -1.0685878      18886.749    
    203000   0.98889707     0.0023323615  -0.0017185278   20.839219      19.370706      1.4685122     -1.256635       19200.801    
    204000   0.96873892     0.0023323615  -0.0027909955   20.841447      19.402869      1.4385773     -1.1538742      18977.558    
    205000   0.92796552     0.0023323615  -0.0025499808   20.75773       19.379701      1.3780288     -1.0242445      18757.8      
    206000   0.95735528     0.0023323615   0.00043634284  20.924148      19.502475      1.4216726     -0.95632052     18590.637    
    207000   0.95496075     0.0023323615  -0.0018459116   20.854136      19.436019      1.4181167     -1.1673576      18702.544    
    208000   1.0481448      0.0023323615  -0.0011286144   21.023643      19.467148      1.5564951     -1.0281427      18568.897    
    209000   1.1919831      0.0023323615   0.0051353783   21.358169      19.588074      1.7700949     -0.91088998     18818.561    
    210000   1.0944289      0.0023323615   0.0027070752   21.415953      19.790727      1.6252269     -0.88532308     18919.664    
    211000   0.96028426     0.0023323615   0.00098750794  20.947848      19.521825      1.4260221     -1.012148       18951.488    
    212000   1.0204406      0.0023323615  -0.0050478673   20.907019      19.391665      1.5153543     -1.0704257      18874.138    
    213000   0.97621113     0.0023323615   0.00010264048  20.715788      19.266115      1.4496735     -1.2307278      18573.521    
    214000   1.0283738      0.0023323615  -0.0027022033   20.559534      19.032399      1.527135      -1.480856       18459.707    
    215000   1.0793202      0.0023323615  -0.0018759026   20.774583      19.171792      1.6027905     -1.3271588      18495.668    
    216000   0.98892639     0.0023323615  -0.0015713356   20.748074      19.279518      1.4685557     -1.2508232      18482.144    
    217000   1.0187901      0.0023323615  -0.00051138524  20.799397      19.286494      1.5129033     -1.23461        18601.374    
    218000   1.0448047      0.0023323615   0.00098520606  21.157401      19.605866      1.551535      -1.0191015      18667.066    
    219000   0.99245032     0.0023323615   0.00294098     20.631435      19.157646      1.4737887     -1.3513671      18669.489    
    220000   1.1055431      0.0023323615   0.0040209097   20.896493      19.254762      1.6417315     -1.3165724      18626.576    
    221000   1.0124249      0.0023323615   0.003081128    20.811618      19.308167      1.5034509     -1.2038715      18718.98     
    222000   0.94970075     0.0023323615  -0.0030951347   20.762631      19.352325      1.4103056     -1.1834695      18603.552    
    223000   1.0679359      0.0023323615   0.0030144064   20.976913      19.391028      1.5858848     -1.208061       18652.861    
    224000   1.0405635      0.0023323615   0.0019333987   20.824013      19.278777      1.5452367     -1.1862175      18608.161    
    225000   0.86033589     0.0023323615   3.6025286e-06  20.467306      19.189707      1.2775988     -1.3626295      18547.962    
    226000   1.0363518      0.0023323615   0.0019250108   20.786115      19.247133      1.5389824     -1.3349558      18559.985    
    227000   1.116613       0.0023323615   6.5861956e-05  20.993714      19.335543      1.6581703     -1.1234446      18580.671    
    228000   0.92273356     0.0023323615   0.00063302215  20.696967      19.326707      1.3702593     -1.1898769      18564.09     
    229000   0.9525693      0.0023323615   0.0024382716   20.529585      19.115019      1.4145654     -1.4084613      18637.139    
    230000   0.8772         0.0023323615  -0.00069434526  20.714371      19.411729      1.302642      -1.1416043      18744.963    
    231000   0.8147193      0.0023323615  -0.0041676775   20.715451      19.505593      1.2098582     -1.0332105      18696.595    
    232000   0.8109807      0.0023323615   0.0060180736   21.075169      19.870863      1.2043063     -0.95582375     18881.576    
    233000   1.0938263      0.0023323615   0.0016198395   21.083757      19.459425      1.624332      -0.95763511     18959.134    
    234000   1.0491608      0.0023323615   0.0030410103   21.041696      19.483693      1.5580038     -1.0821794      19166.938    
    235000   0.88317254     0.0023323615  -0.00014141733  20.822326      19.510815      1.3115112     -1.0233135      19041.585    
    236000   0.97250678     0.0023323615   0.0016520449   20.804676      19.360503      1.4441726     -1.0872804      18645.101    
    237000   0.85705274     0.0023323615  -4.8062566e-05  20.624943      19.35222       1.2727233     -1.2162207      18591.631    
    238000   1.0366765      0.0023323615  -0.00085081398  21.149663      19.610198      1.5394646     -0.99753189     18686.57     
    239000   0.93705069     0.0023323615  -0.00087987442  20.762379      19.370859      1.3915203     -1.1050754      18664.713    
    240000   1.041921       0.0023323615   0.0033696719   21.293736      19.746484      1.5472526     -1.0081109      18670.638    
    241000   1.1103047      0.0023323615  -0.0018653598   21.090003      19.441201      1.6488024     -1.092111       18691.819    
    242000   0.93391613     0.0023323615   0.0016097171   20.732629      19.345764      1.3868654     -1.195434       18573.006    
    243000   0.94895655     0.0023323615  -0.00044601761  20.808327      19.399126      1.4092005     -1.103141       18793.266    
    244000   0.9957535      0.0023323615   0.0025428184   20.814113      19.335419      1.4786939     -1.2187085      18565.499    
    245000   1.0905523      0.0023323615   0.0020222372   21.042168      19.422698      1.6194702     -1.0678178      18812.234    
    246000   0.90888778     0.0023323615   0.0015518063   20.817845      19.468147      1.3496984     -1.263263       18950.153    
    247000   1.0273397      0.0023323615  -0.00054167279  20.695422      19.169823      1.5255994     -1.2325723      18767.135    
    248000   0.93234893     0.0023323615  -7.3159919e-05  20.875446      19.490908      1.3845382     -1.0525983      18727.911    
    249000   0.93707048     0.0023323615  -0.0024464702   20.706514      19.314965      1.3915497     -1.1190892      18536.027    
    250000   1.0869836      0.0023323615  -0.0031921122   20.909833      19.295663      1.6141706     -1.2377698      18566.203    
    251000   0.87016552     0.0023323615   0.0049397092   20.544142      19.251946      1.2921958     -1.2139185      18494.959    
    252000   0.92861442     0.0023323615  -0.0028693455   20.830992      19.452         1.3789924     -1.1852414      18628.7      
    253000   1.1462162      0.0023323615  -0.00098262051  21.034619      19.332488      1.7021311     -1.1769371      18528.024    
    254000   0.96445818     0.0023323615   0.0032529722   20.894533      19.462313      1.4322204     -0.99810505     18817.554    
    255000   0.88089244     0.0023323615   0.00073065628  20.694077      19.385951      1.3081253     -1.1001598      18998.859    
    256000   0.985212       0.0023323615  -0.0025721197   20.866035      19.402995      1.4630398     -1.0430939      18824.109    
    257000   0.96475534     0.0023323615   0.0017206806   20.969335      19.536673      1.4326617     -1.0430987      18726.183    
    258000   1.0631198      0.0023323615  -0.00018578636  21.079579      19.500846      1.5787329     -1.0660175      18822.767    
    259000   0.9346485      0.0023323615  -0.0024694631   20.796907      19.408954      1.387953      -1.0914606      18765.675    
    260000   0.97883843     0.0023323615   0.0043890734   20.697188      19.243613      1.4535751     -1.237854       18639.843    
    261000   1.0845303      0.0023323615   0.0030251978   21.070515      19.459987      1.6105275     -1.0861293      18721.81     
    262000   1.1440648      0.0023323615  -0.0010735987   21.119985      19.421049      1.6989362     -1.1342853      18544.643    
    263000   0.7879461      0.0023323615  -0.0017413296   20.626823      19.456723      1.1701        -1.1220931      18705.015    
    264000   0.98307827     0.0023323615  -0.0047014975   20.724315      19.264443      1.4598712     -1.2972006      18869.211    
    265000   1.1144098      0.0023323615  -0.0019868481   21.216043      19.561144      1.6548985     -1.0537128      18770.838    
    266000   0.83901723     0.0023323615  -0.00082994384  20.471798      19.225858      1.2459406     -1.235991       18865.134    
    267000   0.95980444     0.0023323615  -0.0005086349   20.98873       19.56342       1.4253096     -0.97226732     18857.293    
    268000   0.89943522     0.0023323615   0.00013611865  20.972127      19.636465      1.3356613     -0.96148057     19048.446    
    269000   1.1235761      0.0023323615   0.001103563    21.000129      19.331619      1.6685105     -1.089881       18823.988    
    270000   0.99737494     0.0023323615   0.0012037172   20.940923      19.459821      1.4811018     -1.0743543      18830.245    
    271000   0.89580362     0.0023323615   0.00045500037  20.647217      19.316949      1.3302684     -1.252066       18652.707    
    272000   1.0749326      0.0023323615  -0.0018606095   20.977759      19.381484      1.5962749     -1.1416208      18712.663    
    273000   0.98941991     0.0023323615   0.0018437439   20.700875      19.231586      1.4692886     -1.2431664      18786.213    
    274000   0.90703616     0.0023323615   0.0017608713   20.662841      19.315892      1.3469487     -1.2597415      18574.792    
    275000   1.0574357      0.0023323615   0.0030629916   21.274618      19.704326      1.570292      -0.89130822     18551.824    
    276000   0.9798624      0.0023323615   0.00357002     21.041181      19.586086      1.4550957     -0.92627787     19086.835    
    277000   0.84619592     0.0023323615  -0.0036682421   21.112671      19.85607       1.2566009     -0.70318081     21060.334    
    278000   1.0678828      0.0023323615   0.001571088    20.92195       19.336145      1.585806      -1.0181291      21137.018    
    279000   0.83621653     0.0023323615  -0.0024672265   20.784535      19.542753      1.2417815     -1.1350084      19562.077    
    280000   1.0792566      0.0023323615   0.0042168429   20.884252      19.281555      1.6026961     -1.1617451      18645.101    
    281000   1.0479117      0.0023323615   0.0014887545   20.951344      19.395195      1.5561488     -1.02685        18691.578    
    282000   1.0277215      0.0023323615   0.00065241385  21.147662      19.621495      1.5261665     -0.91592374     18776.367    
    283000   0.86138562     0.0023323615  -0.0003457473   20.711162      19.432004      1.2791576     -1.083075       18643.471    
    284000   0.87770067     0.0023323615  -0.00042452598  20.422988      19.119603      1.3033855     -1.2458175      18548.248    
    285000   0.96739611     0.0023323615  -0.0079163162   20.949968      19.513385      1.4365832     -1.1013604      18717.499    
    286000   1.2149849      0.0023323615   0.0040680875   21.227552      19.423299      1.8042526     -1.0904869      18895.741    
    287000   0.99671964     0.0023323615  -0.0012734714   20.922421      19.442293      1.4801287     -1.0339982      19306.732    
    288000   0.9878106      0.0023323615  -0.0010636115   20.68742       19.220522      1.4668987     -1.2066787      19086.71     
    289000   0.86899784     0.0023323615  -0.0044828855   20.683917      19.393455      1.2904618     -1.1303947      18896.275    
    290000   1.0924722      0.0023323615  -8.5075011e-05  20.878242      19.25592       1.6223212     -1.2024545      18882.961    
    291000   0.8815901      0.0023323615   0.0015003819   20.708478      19.399317      1.3091613     -1.0388553      18849.694    
    292000   1.1475251      0.0023323615  -0.001244049    21.167584      19.46351       1.7040748     -1.0851354      18774.682    
    293000   0.98870498     0.0023323615   0.0014672113   20.801699      19.333472      1.4682269     -1.0745461      18536.798    
    294000   1.0161342      0.0023323615   0.0035085441   20.876509      19.36755       1.5089593     -1.1619965      18754.998    
    295000   1.0603647      0.0023323615   0.0040057618   20.831478      19.256836      1.5746415     -1.2440079      18581.349    
    296000   1.0268053      0.0023323615   0.00051965581  21.104226      19.57942       1.5248059     -0.9792477      18593.1      
    297000   1.1678203      0.0023323615   0.0027771235   21.221057      19.486844      1.7342132     -0.99646469     19160.684    
    298000   0.87138962     0.0023323615   0.004924952    20.864589      19.570575      1.2940136     -0.9172623      19478.636    
    299000   1.0954411      0.0023323615   0.001414626    21.097742      19.471012      1.6267301     -0.96835408     20212.865    
    300000   1.2128547      0.0023323615   0.002233018    21.319473      19.518383      1.8010893     -1.044975       20007.329    
    301000   0.9949321      0.0023323615   0.00042057811  20.86302       19.385546      1.4774742     -1.2100942      19004.615    
    302000   1.1398727      0.0023323615   0.0044982278   20.982348      19.289637      1.6927109     -1.1987594      18586.359    
    303000   1.0148343      0.0023323615  -0.00073240381  20.989814      19.482785      1.5070289     -0.96233017     18616.689    
    304000   1.0460362      0.0023323615  -0.0010615684   21.014035      19.460672      1.5533637     -0.94037276     19014.578    
    305000   1.0083805      0.0023323615   0.0020270003   20.826859      19.329414      1.497445      -1.1562833      19190.786    
    306000   1.0709472      0.0023323615   0.0061858472   20.763649      19.173292      1.5903567     -1.3564562      18790.556    
    307000   1.0753167      0.0023323615   0.00068497073  20.986159      19.389314      1.5968453     -1.2927053      18548.538    
    308000   0.98705088     0.0023323615  -0.0035177327   20.855383      19.389613      1.4657706     -0.9863458      18523.478    
    309000   0.93162273     0.0023323615  -0.0023151899   21.024141      19.640681      1.3834598     -0.96229018     18700.48     
    310000   0.90223006     0.0023323615   0.0012643382   20.642688      19.302876      1.3398116     -1.1632344      18688.977    
    311000   0.92066265     0.0023323615  -0.0029947986   20.723394      19.35621       1.367184      -1.1406584      18618.953    
    312000   0.98258246     0.0023323615  -0.0035907058   21.119562      19.660427      1.459135      -0.96645413     18889.845    
    313000   1.1017126      0.0023323615  -0.00083410324  21.223928      19.587885      1.6360432     -0.97632985     18981.675    
    314000   0.9027029      0.0023323615   0.0032194805   20.943018      19.602504      1.3405138     -0.9774925      18824.45     
    315000   1.0764007      0.0023323615   0.00077598171  20.722461      19.124006      1.5984551     -1.2195688      18746.265    
    316000   1.0708382      0.0023323615   0.0026371628   21.023294      19.433099      1.5901947     -1.051143       19364.227    
    317000   1.1722153      0.0023323615  -0.0042747502   21.139821      19.399081      1.7407397     -1.0964856      19326.769    
    318000   1.0442314      0.0023323615  -0.0014728252   20.950037      19.399354      1.5506837     -1.1887238      19000.386    
    319000   0.91422819     0.0023323615  -0.0010480168   20.870725      19.513096      1.3576289     -1.122352       18525.757    
    320000   0.94879153     0.0023323615  -0.0039868648   20.859169      19.450213      1.4089554     -1.1326327      18539.642    
    321000   0.87621609     0.0023323615  -0.00075362358  20.76691       19.465729      1.3011809     -1.1230836      18612.019    
    322000   0.9259473      0.0023323615   0.0012154168   20.541926      19.166894      1.3750317     -1.2780944      18564.518    
    323000   1.0217534      0.0023323615   0.00012582202  20.984761      19.467457      1.5173038     -0.94969046     18819.941    
    324000   0.95096355     0.0023323615   0.00057325283  20.850151      19.43797       1.4121809     -1.0887346      18924.345    
    325000   0.90890652     0.0023323615  -0.00083048679  20.964776      19.61505       1.3497262     -1.0019634      18808.015    
    326000   1.008653       0.0023323615  -0.0022096538   20.842747      19.344897      1.4978497     -1.144007       18934.343    
    327000   0.92874466     0.0023323615  -0.0018952069   20.812828      19.433643      1.3791858     -1.173699       18919.28     
    328000   0.93218739     0.0023323615   0.0012534759   20.616156      19.231858      1.3842983     -1.2850893      18771.42     
    329000   1.1113608      0.0023323615   0.0026238942   20.868778      19.218407      1.6503708     -1.2735702      18798.232    
    330000   1.0424724      0.0023323615  -0.0018746852   21.03759       19.489518      1.5480715     -1.16663        18738.139    
    331000   1.0660859      0.0023323615  -0.0019198058   20.915318      19.33218       1.5831376     -1.2018686      18654.067    
    332000   0.85677923     0.0023323615   0.0003391001   20.72235       19.450033      1.2723172     -1.0720263      18622.072    
    333000   1.0715849      0.0023323615  -0.0045317835   20.895205      19.303901      1.5913036     -1.2278379      18666.437    
    334000   1.0061914      0.0023323615  -0.0020777418   20.921956      19.427762      1.4941942     -1.0741618      18704.079    
    335000   0.99215733     0.0023323615   0.0059466519   20.845984      19.372631      1.4733536     -1.0522159      18860.871    
    336000   0.99688363     0.0023323615  -0.0033160188   20.79901       19.318637      1.4803722     -1.1636599      18807.973    
    337000   0.94975763     0.0023323615   0.0010579645   20.731012      19.320622      1.4103901     -1.0849565      18706.501    
    338000   0.90289395     0.0023323615  -0.0050404069   20.702733      19.361935      1.3407975     -1.0637779      18776.402    
    339000   0.93816696     0.0023323615   0.00038957521  20.747584      19.354406      1.3931779     -1.2194999      18531.25     
    340000   0.9838277      0.0023323615  -0.001052726    20.778671      19.317687      1.4609841     -1.2968715      18514.593    
    341000   1.0530463      0.0023323615  -0.0015824588   21.009888      19.446114      1.5637737     -1.2342545      18514.905    
    342000   1.1123473      0.0023323615   9.1518065e-05  20.956427      19.304591      1.6518358     -1.2986307      18703.087    
    343000   0.83963887     0.0023323615   3.7174015e-05  20.473317      19.226453      1.2468637     -1.2308584      18532.971    
    344000   1.0429313      0.0023323615  -0.00073209163  20.785896      19.237143      1.5487529     -1.2406452      18514.438    
    345000   1.0491938      0.0023323615  -0.0015480084   20.893953      19.335901      1.5580527     -1.2083577      18712.424    
    346000   1.0377982      0.0023323615   0.00098393756  20.82693       19.2858        1.5411303     -1.2791336      18713.568    
    347000   1.0478427      0.0023323615   0.0023713133   20.81385       19.257804      1.5560465     -1.216924       18607.981    
    348000   1.1175048      0.0023323615   0.00067039178  21.098479      19.438984      1.6594946     -1.1301024      18592.057    
    349000   0.9214717      0.0023323615  -0.0027377799   20.718226      19.34984       1.3683855     -1.100224       18681.796    
    350000   0.90061661     0.0023323615  -0.00133761     20.832804      19.495388      1.3374157     -1.14203        18592.836    
    351000   1.0241596      0.0023323615  -0.0039351656   20.901734      19.380857      1.520877      -1.1837694      18679.268    
    352000   0.84688461     0.0023323615  -0.0010523754   20.563175      19.305551      1.2576237     -1.1530882      18672.395    
    353000   0.93036814     0.0023323615   0.0013763266   20.627567      19.24597       1.3815967     -1.2052847      18565.315    
    354000   0.96815078     0.0023323615  -0.0014442906   20.854578      19.416874      1.4377039     -1.0905739      18729.929    
    355000   1.0233914      0.0023323615   0.00068958985  20.897246      19.377509      1.5197363     -1.2843419      18559.864    
    356000   1.0878257      0.0023323615  -0.0009696257   20.972902      19.357481      1.6154211     -1.0912646      18556.89     
    357000   0.94180021     0.0023323615   0.0002025543   20.753361      19.354788      1.3985733     -1.1304962      18835.43     
    358000   0.9149103      0.0023323615  -0.00087924896  21.103404      19.744762      1.3586418     -0.68003932     18970.824    
    359000   1.0061982      0.0023323615  -0.0006535857   21.028743      19.534538      1.4942043     -1.0732668      19203.889    
    360000   1.0922173      0.0023323615  -0.00055414631  20.825625      19.203682      1.6219427     -1.4025755      18567.481    
    361000   1.0313597      0.0023323615   0.0060830407   20.714933      19.183364      1.5315691     -1.3535258      18569.816    
    362000   0.92538715     0.0023323615  -0.0041147033   20.637572      19.263372      1.3741999     -1.1779539      18535.056    
    363000   1.0912019      0.0023323615   0.0023061242   20.912778      19.292343      1.6204348     -1.2677069      18560.462    
    364000   1.0318158      0.0023323615  -0.00056848744  20.770546      19.2383        1.5322465     -1.2784606      18549.717    
    365000   1.0167222      0.0023323615   1.0779467e-05  20.912118      19.402286      1.5098325     -1.0886597      18670.107    
    366000   1.0472427      0.0023323615  -0.00015354031  20.890821      19.335666      1.5551555     -1.1698938      18699.089    
    367000   1.0367345      0.0023323615  -0.0017236128   20.884546      19.344996      1.5395507     -1.2077773      18705.25     
    368000   1.0667414      0.0023323615  -1.0945144e-06  20.873321      19.28921       1.5841109     -1.1260291      18773.697    
    369000   1.0524693      0.0023323615  -0.00098993555  20.773982      19.211065      1.5629168     -1.2676622      18776.109    
    370000   0.92113322     0.0023323615  -0.0021017398   20.838863      19.47098       1.3678828     -1.0356983      18783.052    
    371000   1.047408       0.0023323615  -0.00220048     20.954994      19.399593      1.5554009     -1.1368867      18696.448    
    372000   1.0392273      0.0023323615   0.00020472716  20.930573      19.387321      1.5432526     -1.0088927      18656.933    
    373000   0.96048314     0.0023323615  -0.00072465673  20.867441      19.441124      1.4263175     -1.096          18651.756    
    374000   0.94628232     0.0023323615   0.0022391583   20.758656      19.353427      1.4052292     -1.1917755      18549.32     
    375000   1.1185532      0.0023323615   0.00051937681  21.055199      19.394148      1.6610515     -1.2147882      18701.804    
    376000   1.1903901      0.0023323615   0.0030336378   21.103954      19.336225      1.7677293     -1.1457751      18732.751    
    377000   1.2320154      0.0023323615  -0.001330271    21.417197      19.587654      1.8295429     -1.0842535      18790.333    
    378000   1.0380217      0.0023323615  -0.00052157149  21.010756      19.469294      1.5414623     -1.0928511      18886.317    
    379000   0.99114469     0.0023323615  -0.00029839609  20.989952      19.518102      1.4718499     -1.0826402      18803.934    
    380000   1.0055152      0.0023323615   0.0038941033   20.761215      19.268025      1.4931901     -1.2276068      18719.043    
    381000   0.9895928      0.0023323615  -0.0010297188   20.748707      19.279162      1.4695453     -1.2167272      18676.608    
    382000   0.96693595     0.0023323615  -0.0052889677   20.680169      19.244269      1.4358999     -1.1360257      18669.887    
    383000   1.2347143      0.0023323615  -0.0010302995   21.171135      19.337584      1.8335507     -1.067943       18518.422    
    384000   0.96952276     0.0023323615  -0.0018661977   20.797509      19.357768      1.4397413     -1.1569703      18371.229    
    385000   1.0447934      0.0023323615   0.0014453316   21.162978      19.611459      1.5515182     -1.0268778      18505.674    
    386000   0.87090259     0.0023323615  -0.001306512    20.692018      19.398728      1.2932903     -1.2251042      18599.486    
    387000   0.91602246     0.0023323615  -0.0033905395   20.755998      19.395705      1.3602933     -1.215528       18584.483    
    388000   0.94347642     0.0023323615  -0.0043550196   20.714257      19.313194      1.4010625     -1.2430884      18575.663    
    389000   0.9302365      0.0023323615   0.0017104388   20.690472      19.309071      1.3814012     -1.1024507      18612.072    
    390000   0.8982153      0.0023323615   0.00022091994  20.78036       19.44651       1.3338497     -1.0357062      18660.724    
    391000   0.98582051     0.0023323615  -0.0011937906   20.987079      19.523136      1.4639435     -1.0323013      18998.7      
    392000   0.99499879     0.0023323615   0.0010404515   21.023867      19.546294      1.4775732     -1.0272595      18945.689    
    393000   1.0789718      0.0023323615   0.0013781969   20.897571      19.295298      1.6022731     -1.2109911      18811.227    
    394000   1.1777982      0.0023323615   3.4240046e-05  20.900607      19.151576      1.7490304     -1.1826653      18925.899    
    395000   1.0623205      0.0023323615   0.0016375534   21.065004      19.487458      1.5775459     -1.1035585      18822.845    
    396000   1.0953145      0.0023323615   0.0036154184   21.079741      19.453199      1.626542      -1.2011406      18793.085    
    397000   1.0975776      0.0023323615   0.00025924942  20.894919      19.265017      1.6299028     -1.1866426      18324.243    
    398000   0.95078411     0.0023323615   0.00015803499  21.016317      19.604402      1.4119144     -1.0741603      18651.055    
    399000   0.99497298     0.0023323615  -0.00082029521  20.975259      19.497724      1.4775349     -1.0812005      18767.333    
    400000   0.97584464     0.0023323615  -0.0015787767   20.990032      19.540903      1.4491293     -1.0532748      18720.279    
    401000   1.0150466      0.0023323615  -0.0032597391   20.862464      19.35512       1.5073442     -1.1793929      18686.895    
    402000   0.91531576     0.0023323615  -0.00045691602  20.461194      19.10195       1.3592439     -1.3500619      18691.175    
    403000   1.021255       0.0023323615  -0.0020488941   21.079138      19.562574      1.5165637     -0.92369725     18656.271    
    404000   1.0731515      0.0023323615   0.0041501604   20.985872      19.392242      1.59363       -1.0408405      19106.012    
    405000   0.96889086     0.0023323615   0.000748589    21.061193      19.62239       1.4388029     -0.94954121     18827.049    
    406000   1.1808339      0.0023323615   0.0077617016   21.185692      19.432154      1.7535384     -1.1183856      18685.804    
    407000   1.0123894      0.0023323615   0.0021517595   20.860878      19.35748       1.5033983     -1.2627291      18419.04     
    408000   1.2183195      0.0023323615  -0.0032388793   21.280805      19.4716        1.8092045     -1.1721233      18544.499    
    409000   0.98256929     0.0023323615  -0.00035720708  20.839992      19.380877      1.4591154     -1.2154538      18668.892    
    410000   0.9892167      0.0023323615  -0.0019825963   20.731471      19.262484      1.4689868     -1.2765424      18564.546    
[...]
    861000   0.88055484     0.0023323615  -0.00016112876  20.827562      19.519938      1.3076239     -1.0780577      18697.744    
    862000   0.76912496     0.0023323615  -0.0010064218   20.641532      19.499382      1.1421506     -1.0115745      19013.919    
    863000   1.0266826      0.0023323615  -9.5561515e-05  20.907107      19.382484      1.5246236     -1.275408       18727.026    
    864000   1.1002805      0.0023323615   0.0021556307   20.89909       19.265174      1.6339165     -1.2936258      18601.995    
    865000   1.005751       0.0023323615  -0.00071829535  20.711553      19.218013      1.4935402     -1.3623435      18415.839    
    866000   1.0122599      0.0023323615   0.0012398948   20.8614        19.358194      1.503206      -1.1600004      18474.105    
    867000   0.97018517     0.0023323615  -0.0017232325   20.813055      19.37233       1.440725      -1.1490407      18630.762    
    868000   0.93413009     0.0023323615   0.0006459978   20.747975      19.360791      1.3871832     -1.1601664      18679.24     
    869000   0.93924575     0.0023323615  -0.00083340985  20.78523       19.39045       1.3947799     -1.0569297      18638.541    
    870000   0.97846261     0.0023323615  -0.00083430604  20.48757       19.034553      1.453017      -1.3541903      18529.245    
    871000   0.94293926     0.0023323615  -0.00055521837  20.685487      19.285223      1.4002648     -1.1514021      18606.572    
    872000   0.90468119     0.0023323615   0.0051378102   20.885971      19.542519      1.3434516     -1.0553914      18570.538    
    873000   1.0143389      0.0023323615  -0.002404636    20.929905      19.423612      1.5062932     -1.1230292      18549.461    
    874000   1.0152993      0.0023323615  -0.0016209174   20.621843      19.114123      1.5077194     -1.2928929      18396.132    
    875000   0.94477058     0.0023323615   0.00085915252  20.691758      19.288774      1.4029843     -1.1966506      18542.766    
    876000   1.1264001      0.0023323615  -0.0026121141   21.005871      19.333167      1.6727041     -1.2526805      18837.851    
    877000   0.97520548     0.0023323615   0.0013375207   20.72254       19.27436       1.4481801     -1.1664237      18743.055    
    878000   0.96044297     0.0023323615  -0.0010903568   20.738006      19.311748      1.4262578     -1.1595636      18713.252    
    879000   1.1481359      0.0023323615  -0.00019169674  21.121849      19.416868      1.7049818     -1.1077392      18670.456    
    880000   1.0544587      0.0023323615  -0.00060235263  20.870316      19.304445      1.5658712     -1.1923212      18652.801    
    881000   1.0968026      0.0023323615   0.0025006534   20.996396      19.367644      1.6287519     -1.1361207      18709.706    
    882000   1.0443644      0.0023323615   0.001244565    21.013057      19.462176      1.5508811     -1.2437753      18862.157    
    883000   1.0042579      0.0023323615  -0.001816757    20.952949      19.461626      1.4913229     -1.2360152      18542.27     
    884000   1.0796407      0.0023323615   0.0011221116   20.924493      19.321227      1.6032664     -1.119013       18939.265    
    885000   0.9363193      0.0023323615   0.0016962391   20.900123      19.509689      1.3904342     -1.0872123      19123.887    
    886000   1.0678876      0.0023323615   0.00059757203  21.253142      19.667329      1.5858131     -0.97200503     19241.417    
    887000   1.0301134      0.0023323615  -0.0014368603   20.769119      19.239401      1.5297184     -1.2154323      18953.373    
    888000   1.0165155      0.0023323615  -0.0016643836   21.203612      19.694086      1.5095255     -1.009802       18478.065    
    889000   0.861283       0.0023323615  -0.0016622491   20.373936      19.094931      1.2790053     -1.3640002      18582.054    
    890000   1.0007878      0.0023323615   0.0006795292   21.026708      19.540538      1.4861699     -1.0478243      18625.381    
    891000   1.0699213      0.0023323615   0.0016306369   20.843684      19.254851      1.5888332     -1.1462603      18796.876    
    892000   1.0471912      0.0023323615   0.00095229477  21.015709      19.46063       1.5550789     -1.0234219      18862.379    
    893000   1.0619194      0.0023323615  -8.0025117e-05  20.970723      19.393772      1.5769503     -1.0166488      19474.767    
    894000   1.0757041      0.0023323615   0.0027943002   21.128428      19.531007      1.5974206     -0.97623198     19229.236    
    895000   1.0955816      0.0023323615   0.00027314358  21.144453      19.517514      1.6269386     -1.0534432      18898.002    
    896000   0.92845469     0.0023323615  -0.00056469453  20.726054      19.347299      1.3787552     -1.215043       18895.527    
    897000   0.99024007     0.0023323615  -0.0023485588   20.968431      19.497925      1.4705065     -1.0966422      18782.059    
    898000   0.95358646     0.0023323615  -0.00029644112  20.745681      19.329605      1.4160759     -1.3038558      18796.381    
    899000   0.93141363     0.0023323615  -0.00050825104  20.723456      19.340307      1.3831492     -1.3325573      18778.486    
    900000   0.93678458     0.0023323615  -0.001256008    20.726807      19.335682      1.3911251     -1.2877895      18672.084    
    901000   1.0815855      0.0023323615   0.00040310352  21.135447      19.529293      1.6061544     -1.0163941      18690.818    
    902000   1.0688405      0.0023323615   0.0020315456   20.901433      19.314205      1.5872282     -1.1799885      18784.028    
    903000   0.99665027     0.0023323615  -0.0031839506   20.992073      19.512047      1.4800256     -1.1087669      18660.934    
    904000   1.0745842      0.0023323615   0.0051383353   20.952812      19.357055      1.5957576     -1.1963961      18629.044    
    905000   0.92839701     0.0023323615  -0.0029325345   20.829468      19.450798      1.3786696     -1.1232325      18957.341    
    906000   0.96818615     0.0023323615   0.002343979    20.958004      19.520247      1.4377564     -1.0662311      19356.333    
    907000   1.0814678      0.0023323615  -0.0028491102   21.225167      19.619187      1.6059797     -1.0098019      19644.082    
    908000   0.99617295     0.0023323615   0.0029212939   20.980842      19.501525      1.4793168     -0.97569965     19046.704    
    909000   0.91732046     0.0023323615  -0.0024630863   20.715721      19.353501      1.3622209     -1.1203196      18716.863    
    910000   1.0270806      0.0023323615   0.0041379933   21.04895       19.523735      1.5252148     -1.023604       18787.815    
    911000   0.97164118     0.0023323615  -0.0025743718   20.826326      19.383439      1.4428872     -1.0648405      18955.501    
    912000   1.1280189      0.0023323615  -0.0040892144   21.230651      19.555543      1.6751081     -1.1136794      19093.345    
    913000   1.0617515      0.0023323615  -0.0057326705   20.881325      19.304624      1.576701      -1.2040311      18633.663    
    914000   0.97546678     0.0023323615  -0.00065519149  20.86835       19.419782      1.4485682     -1.0135769      18748.255    
    915000   0.94917547     0.0023323615  -0.0022605466   20.715682      19.306156      1.4095256     -1.1856515      18642.538    
    916000   0.86905885     0.0023323615   0.0023533727   20.603887      19.313334      1.2905524     -1.0751511      18607.547    
    917000   0.98174989     0.0023323615   9.5690519e-06  20.640054      19.182155      1.4578986     -1.2209851      18690.972    
    918000   0.96555502     0.0023323615  -0.0014002249   20.764419      19.330569      1.4338492     -1.2263663      18627.418    
    919000   1.0261158      0.0023323615  -7.8460316e-05  20.880631      19.356849      1.523782      -1.2603708      18640.345    
    920000   1.0008173      0.0023323615  -0.00059801967  20.715645      19.229431      1.4862136     -1.3116264      18662.015    
    921000   1.0342344      0.0023323615  -0.0025014597   21.07687       19.541032      1.535838      -1.163289       18721.378    
    922000   0.89018148     0.0023323615  -0.0016694212   20.92192       19.600001      1.3219195     -1.0006626      19107.969    
    923000   0.97120553     0.0023323615   0.0045353493   20.90304       19.460799      1.4422402     -1.0147921      20079.92     
    924000   1.0358044      0.0023323615  -0.0027820698   20.833301      19.295132      1.5381695     -1.1044867      19923.725    
    925000   0.99762939     0.0023323615  -0.001289469    20.974695      19.493215      1.4814796     -1.0895537      18995.739    
    926000   1.1295952      0.0023323615   0.0016360973   21.001011      19.323562      1.6774489     -1.1788556      18574.398    
    927000   1.0573197      0.0023323615   0.0043635567   21.018491      19.448371      1.5701198     -1.1585729      18621.374    
    928000   0.93008312     0.0023323615   0.00086978936  20.724694      19.343521      1.3811734     -1.1015804      18584.531    
    929000   0.93167561     0.0023323615   0.0024644206   20.79792       19.414382      1.3835383     -1.0841797      18485.464    
    930000   0.97997063     0.0023323615   0.00083286579  20.841153      19.385896      1.4552564     -1.0578181      18757.824    
    931000   1.1087578      0.0023323615   0.0052763725   20.888983      19.242478      1.6465053     -1.3127359      18705.59     
    932000   1.0439405      0.0023323615  -0.0009925953   21.032564      19.482313      1.5502516     -1.0258858      18679.258    
    933000   0.96906053     0.0023323615   0.00019772215  20.971984      19.53293       1.4390549     -1.0321376      18735.227    
    934000   1.0745442      0.0023323615   0.0016007288   20.828555      19.232856      1.5956982     -1.391611       18615.248    
    935000   1.1058523      0.0023323615   0.0049848995   20.951821      19.309631      1.6421907     -1.2719077      18566.59     
    936000   1.0403236      0.0023323615   0.0049198496   20.970226      19.425345      1.5448805     -1.0270958      18654.771    
    937000   1.1408614      0.0023323615  -0.0033713262   20.91624       19.22206       1.6941792     -1.2101174      18729.475    
    938000   1.1067071      0.0023323615   0.00047134078  21.009978      19.366518      1.64346       -1.1884411      18613.821    
    939000   1.0222986      0.0023323615  -0.0030857433   21.131013      19.6129        1.5181134     -1.1131129      18542.483    
    940000   1.0339405      0.0023323615  -0.00054463585  21.040772      19.505371      1.5354017     -1.0925566      18699.842    
    941000   1.045066       0.0023323615  -0.00087033979  21.04222       19.490297      1.5519231     -1.1275765      18600.016    
    942000   1.0673568      0.0023323615   0.002818068    20.698648      19.113623      1.5850249     -1.3250031      18698.833    
    943000   0.95010522     0.0023323615   0.0054976215   20.696506      19.2856        1.4109062     -1.2174883      18558.674    
    944000   1.1933038      0.0023323615   0.00070737493  20.951761      19.179705      1.7720562     -1.2270041      18656.434    
    945000   1.0696211      0.0023323615   0.0013565884   21.090337      19.50195       1.5883873     -1.1769077      18491.378    
    946000   0.94666992     0.0023323615   0.00011590652  20.634387      19.228582      1.4058048     -1.1756023      18647.957    
    947000   1.041202       0.0023323615   0.0028649596   20.840977      19.294792      1.546185      -1.169059       18601.724    
    948000   0.84288617     0.0023323615   0.0013152451   20.381394      19.129708      1.251686      -1.2493202      18614.009    
    949000   1.0664498      0.0023323615  -0.0014171943   20.914833      19.331155      1.583678      -1.1739722      18564.317    
    950000   1.1894339      0.0023323615   0.0048611541   21.028498      19.262188      1.7663094     -1.1887759      18553.713    
    951000   1.1016873      0.0023323615   0.00045049312  20.694119      19.058113      1.6360056     -1.3197734      18588.505    
    952000   1.0672629      0.0023323615   0.00026603855  20.819644      19.234758      1.5848854     -1.2942744      18571.184    
    953000   1.0259899      0.0023323615  -0.0013862635   20.795174      19.271579      1.523595      -1.219373       18762.055    
    954000   1.025147       0.0023323615   0.0010096649   20.652631      19.130287      1.5223434     -1.4687896      18558.65     
    955000   1.0710208      0.0023323615   0.0035884911   20.883375      19.292909      1.5904658     -1.1629057      18626.715    
    956000   0.9607294      0.0023323615   0.0010954999   20.78979       19.363107      1.4266832     -1.2648182      18668.707    
    957000   0.87581612     0.0023323615  -0.0018264899   20.711632      19.411045      1.3005869     -0.94885622     18678.199    
    958000   1.0785768      0.0023323615   0.0040319516   21.255853      19.654167      1.6016866     -0.81858946     18834.871    
    959000   1.0040045      0.0023323615   0.00094599487  20.895883      19.404936      1.4909466     -1.0319327      18745.209    
    960000   1.0169065      0.0023323615   0.0011757384   20.725766      19.215659      1.5101061     -1.2350369      18682.306    
    961000   0.96948279     0.0023323615  -7.0963206e-05  20.998827      19.559145      1.4396819     -0.99049747     18724.823    
    962000   0.95957767     0.0023323615   0.002222283    20.923429      19.498456      1.4249728     -0.99953985     18843.655    
    963000   0.84906859     0.0023323615  -0.0020382125   20.890364      19.629498      1.2608669     -0.95269295     18642.082    
    964000   0.99446485     0.0023323615  -0.00013939194  20.775781      19.299         1.4767803     -1.1373389      18610.521    
    965000   0.92075697     0.0023323615   0.00019568777  21.003837      19.636513      1.3673241     -0.99184335     18558.498    
    966000   0.9608048      0.0023323615   0.00018510946  20.897881      19.471086      1.4267951     -1.0147547      19371.917    
    967000   1.0274497      0.0023323615   0.0023263868   21.369498      19.843735      1.5257628     -0.75682391     19729.733    
    968000   1.0105317      0.0023323615   0.0036380439   21.352671      19.852031      1.5006396     -0.67168326     19488.806    
    969000   1.1243684      0.0023323615  -0.0012428615   21.346059      19.676372      1.6696871     -0.85086706     19243.101    
    970000   1.0705388      0.0023323615  -0.00054636156  21.048806      19.459056      1.5897501     -1.0939873      18706.189    
    971000   0.95262642     0.0023323615  -0.0019698303   20.852758      19.438108      1.4146502     -1.1917077      18463.596    
    972000   0.97495326     0.0023323615   0.00024869644  20.960067      19.512262      1.4478056     -1.0062631      18622.754    
    973000   0.9265504      0.0023323615  -0.0049957941   20.765322      19.389395      1.3759273     -1.1189043      18473.742    
    974000   1.2569996      0.0023323615   0.0069900937   21.360129      19.493485      1.8666445     -1.0096535      18498.698    
    975000   1.0814897      0.0023323615   0.003014512    20.786118      19.180105      1.6060122     -1.2725987      18473.691    
    976000   0.95201504     0.0023323615  -0.00080296307  20.923573      19.509831      1.4137423     -1.0807027      18476.505    
    977000   1.0499328      0.0023323615   0.00014986041  20.780739      19.221589      1.5591503     -1.2694124      18482.325    
    978000   1.0706017      0.0023323615  -0.0018520542   20.865145      19.275302      1.5898436     -1.2084159      18612.141    
    979000   1.0648597      0.0023323615   0.0024749871   20.978741      19.397424      1.5813166     -1.2389621      18740.292    
    980000   1.1872523      0.0023323615   0.0028799821   20.909681      19.146612      1.7630697     -1.4389036      18386.091    
    981000   0.94942677     0.0023323615   1.1239226e-05  20.87222       19.462321      1.4098987     -1.1690571      18565.913    
    982000   1.0708854      0.0023323615  -0.0054550052   21.145514      19.555249      1.5902649     -1.0008952      18871.844    
    983000   0.98930575     0.0023323615   0.0029837378   20.96203       19.492911      1.469119      -0.9831197      19331.307    
    984000   0.99104313     0.0023323615   0.0028856583   21.137028      19.665329      1.471699      -0.98735248     19513.343    
    985000   0.98288775     0.0023323615  -0.0011138131   20.969689      19.5101        1.4595883     -1.1995531      18662.151    
    986000   1.03558        0.0023323615  -0.0015955953   20.93809       19.400254      1.5378363     -1.1261859      18440.301    
    987000   0.96468316     0.0023323615  -2.7695843e-05  20.578541      19.145987      1.4325545     -1.3462769      18605.889    
    988000   1.2470246      0.0023323615  -0.0023054646   21.263994      19.412162      1.8518316     -1.1254586      18558.629    
    989000   0.9619604      0.0023323615  -0.0039615073   20.932616      19.504105      1.4285112     -1.0901015      18674.781    
    990000   0.95619213     0.0023323615   0.00087670879  21.098777      19.678832      1.4199453     -0.91684531     18859.887    
    991000   1.0383232      0.0023323615   0.0020147371   21.10521       19.5633        1.54191       -0.92194577     19257.733    
    992000   0.97879343     0.0023323615   0.0020561983   21.13128       19.677771      1.4535082     -0.86613425     19315.703    
    993000   1.0088243      0.0023323615   0.00055112072  20.953671      19.455567      1.4981041     -1.0945773      18703.728    
    994000   0.86126304     0.0023323615  -8.3980067e-05  20.762297      19.483322      1.2789756     -1.0481103      18551.337    
    995000   1.0330026      0.0023323615   0.0001435165   20.911552      19.377543      1.5340088     -1.0805532      18608.973    
    996000   1.0654451      0.0023323615   0.0039918322   20.8098        19.227614      1.582186      -1.2595121      18457.962    
    997000   1.1460699      0.0023323615  -0.00080473071  20.885489      19.183575      1.7019138     -1.2829974      18484.759    
    998000   0.94729929     0.0023323615   0.001117181    20.61975       19.213011      1.4067394     -1.3022238      18590.631    
    999000   1.0344173      0.0023323615   0.0049894597   20.964788      19.428678      1.5361096     -1.1806811      18308.822    
   1000000   1.1006169      0.0023323615   0.00061312327  21.116785      19.482369      1.6344162     -1.0159454      18388.357    
Loop time of 53.1048 on 1 procs for 1000000 steps with 100 atoms

Performance: 8134862.831 tau/day, 18830.701 timesteps/s
99.5% CPU use with 1 MPI tasks x 1 OpenMP threads

MPI task timing breakdown:
Section |  min time  |  avg time  |  max time  |%varavg| %total
---------------------------------------------------------------
Pair    | 44.009     | 44.009     | 44.009     |   0.0 | 82.87
Bond    | 1.2892     | 1.2892     | 1.2892     |   0.0 |  2.43
Neigh   | 3.8329     | 3.8329     | 3.8329     |   0.0 |  7.22
Comm    | 1.3959     | 1.3959     | 1.3959     |   0.0 |  2.63
Output  | 0.2144     | 0.2144     | 0.2144     |   0.0 |  0.40
Modify  | 2.0001     | 2.0001     | 2.0001     |   0.0 |  3.77
Other   |            | 0.363      |            |       |  0.68

Nlocal:            100 ave         100 max         100 min
Histogram: 1 0 0 0 0 0 0 0 0 0
Nghost:            330 ave         330 max         330 min
Histogram: 1 0 0 0 0 0 0 0 0 0
Neighs:           4851 ave        4851 max        4851 min
Histogram: 1 0 0 0 0 0 0 0 0 0

Total # of neighbors = 4851
Ave neighs/atom = 48.51
Ave special neighs/atom = 1.98
Neighbor list builds = 97926
Dangerous builds = 80394

write_data      ${outputfile_assembled} nofix nocoeff
write_data      7_assembled.data nofix nocoeff
System init for write_data ...
Generated 0 of 6 mixed pair_coeff terms from geometric mixing rule

Total wall time: 0:00:54
