LAMMPS (23 Jun 2022 - Update 1)
OMP_NUM_THREADS environment is not set. Defaulting to 1 thread. (src/comm.cpp:98)
  using 1 OpenMP thread(s) per MPI task


variable        runtime equal 1000000
variable		subsample_rate equal 1000

variable		outputfile_created string '3_created.data'
variable		outputfile_relaxed string '5_relaxed.data'
variable		outputfile_selfasb string '6_a_self_assemble.lammpstrj'
variable		outputfile_trajlin string '6_b_trajlin.data'
variable		outputfile_assembled string '7_assembled.data'

units           lj
atom_style      full
dimension       3
boundary        p p p
timestep        0.005

read_data       ${outputfile_created}
read_data       3_created.data
Reading data file ...
  orthogonal box = (0 0 0) to (35 35 35)
  1 by 1 by 1 MPI processor grid
  reading atoms ...
  100 atoms
  reading velocities ...
  100 velocities
  scanning bonds ...
  1 = max bonds/atom
  reading bonds ...
  99 bonds
Finding 1-2 1-3 1-4 neighbors ...
  special bond factors lj:    0        0        0       
  special bond factors coul:  0        0        0       
     2 = max # of 1-2 neighbors
     2 = max # of 1-3 neighbors
     4 = max # of 1-4 neighbors
     6 = max # of special neighbors
  special bonds CPU = 0.001 seconds
  read_data CPU = 0.008 seconds

bond_style      fene
bond_coeff      * 30.0 1.5 1.0 1.0
special_bonds   fene
Finding 1-2 1-3 1-4 neighbors ...
  special bond factors lj:    0        1        1       
  special bond factors coul:  0        1        1       
     2 = max # of 1-2 neighbors
     6 = max # of special neighbors
  special bonds CPU = 0.000 seconds

variable        Temp equal 1.0
variable        velSeed equal 926458

velocity        all create ${Temp} ${velSeed}
velocity        all create 1 ${velSeed}
velocity        all create 1 926458

### Output
thermo_style    custom step temp density press etotal pe ke epair spcpu
thermo          1000

###########################################################################
# Soft relaxation (to remove overlaps of particles)
######################################################################

pair_style      soft 1.0
pair_coeff      * * 0.0
variable        prefactor equal ramp(0,300)
fix             rampSoft all adapt 1 pair soft a * * v_prefactor

minimize        0.0 1.0e-8 1000 100000
WARNING: Using 'neigh_modify every 1 delay 0 check yes' setting during minimization (src/min.cpp:187)
Generated 0 of 6 mixed pair_coeff terms from geometric mixing rule
Neighbor list info ...
  update every 1 steps, delay 0 steps, check yes
  max neighbors/atom: 2000, page size: 100000
  master list distance cutoff = 1.3
  ghost atom cutoff = 1.3
  binsize = 0.65, bins = 54 54 54
  1 neighbor lists, perpetual/occasional/extra = 1 0 0
  (1) pair soft, perpetual
      attributes: half, newton on
      pair build: half/bin/newton
      stencil: half/bin/3d
      bin: standard
WARNING: Communication cutoff 1.3 is shorter than a bond length based estimate of 1.7550000000000001. This may lead to errors. (src/comm.cpp:727)
Per MPI rank memory allocation (min/avg/max) = 8.346 | 8.346 | 8.346 Mbytes
   Step          Temp         Density         Press          TotEng         PotEng         KinEng         E_pair         S/CPU     
         0   1              0.0023323615  -0.0039617958   21.524174      20.039174      1.485          0              0            
       362   1              0.0023323615   0.0023090379   21.485548      20.000548      1.485          0              68253.453    
Loop time of 0.00530609 on 1 procs for 362 steps with 100 atoms

99.3% CPU use with 1 MPI tasks x 1 OpenMP threads

Minimization stats:
  Stopping criterion = force tolerance
  Energy initial, next-to-last, final = 
      20.0391741078675   20.0005480767337   20.0005480767337
  Force two-norm initial, final = 11.878422 7.9509778e-09
  Force max component initial, final = 6.6117807 1.3572772e-09
  Final line search alpha, max atom move = 1 1.3572772e-09
  Iterations, force evaluations = 362 738

MPI task timing breakdown:
Section |  min time  |  avg time  |  max time  |%varavg| %total
---------------------------------------------------------------
Pair    | 0.00021385 | 0.00021385 | 0.00021385 |   0.0 |  4.03
Bond    | 0.0023336  | 0.0023336  | 0.0023336  |   0.0 | 43.98
Neigh   | 0.0015728  | 0.0015728  | 0.0015728  |   0.0 | 29.64
Comm    | 0.0001916  | 0.0001916  | 0.0001916  |   0.0 |  3.61
Output  | 0          | 0          | 0          |   0.0 |  0.00
Modify  | 0          | 0          | 0          |   0.0 |  0.00
Other   |            | 0.0009943  |            |       | 18.74

Nlocal:            100 ave         100 max         100 min
Histogram: 1 0 0 0 0 0 0 0 0 0
Nghost:             20 ave          20 max          20 min
Histogram: 1 0 0 0 0 0 0 0 0 0
Neighs:              0 ave           0 max           0 min
Histogram: 1 0 0 0 0 0 0 0 0 0

Total # of neighbors = 0
Ave neighs/atom = 0
Ave special neighs/atom = 1.98
Neighbor list builds = 17
Dangerous builds = 0

fix             nvtSoft all nvt temp ${Temp} ${Temp} 0.5
fix             nvtSoft all nvt temp 1 ${Temp} 0.5
fix             nvtSoft all nvt temp 1 1 0.5
run             100000
Generated 0 of 6 mixed pair_coeff terms from geometric mixing rule
WARNING: Communication cutoff 1.3 is shorter than a bond length based estimate of 1.7550000000000001. This may lead to errors. (src/comm.cpp:727)
Per MPI rank memory allocation (min/avg/max) = 7.221 | 7.221 | 7.221 Mbytes
   Step          Temp         Density         Press          TotEng         PotEng         KinEng         E_pair         S/CPU     
       362   1              0.0023323615   0.0023090379   21.485548      20.000548      1.485          0              0            
      1000   0.90989032     0.0023323615  -0.0021940042   21.776974      20.425787      1.3511871      0.00036425437  79138.939    
      2000   0.86546688     0.0023323615   0.0034714157   21.677128      20.39191       1.2852183      0.0025814786   77955.344    
      3000   0.98199538     0.0023323615   0.0028144228   21.866132      20.407869      1.4582631      0.0011756043   74445.208    
      4000   1.004495       0.0023323615  -0.0014058211   21.945624      20.453949      1.4916751      0.011986179    74834.347    
      5000   1.1222705      0.0023323615   0.0044495116   21.986385      20.319813      1.6665718      0.0050317639   74127.199    
      6000   1.0538243      0.0023323615   0.0023957538   21.985713      20.420784      1.564929       0.012100514    75632.644    
      7000   1.0210598      0.0023323615  -0.00038820026  21.904665      20.388391      1.5162738      0              77583.419    
      8000   0.94819751     0.0023323615   0.0024943091   21.747889      20.339816      1.4080733      0              77403.047    
      9000   0.92364502     0.0023323615   0.0020053029   21.724166      20.352554      1.3716129      1.7780894e-05  76265.155    
     10000   0.86685188     0.0023323615   0.00078277366  21.644879      20.357604      1.287275       0.0098636418   76707.076    
     11000   1.0057103      0.0023323615   0.00010113276  21.8558        20.362321      1.4934798      0.020705341    76349.329    
     12000   0.97901664     0.0023323615  -0.0026996968   21.871206      20.417366      1.4538397      0.0052928539   75822.07     
     13000   0.97718436     0.0023323615  -6.1641422e-06  21.963706      20.512587      1.4511188      0.025022446    76112.554    
     14000   1.0530014      0.0023323615  -0.0009993112   21.947994      20.384287      1.5637071      0.0020860456   75346.833    
     15000   0.99094527     0.0023323615   0.0011068478   21.895146      20.423592      1.4715537      0.0015091113   76185.751    
     16000   0.91285091     0.0023323615  -0.00025424173  21.87524       20.519657      1.3555836      0.0047853639   75755.315    
     17000   0.82806978     0.0023323615  -0.00054698156  21.701984      20.472301      1.2296836      0              76162.211    
     18000   1.043278       0.0023323615  -6.6143919e-05  22.003299      20.454031      1.5492679      0.0034319132   76729.777    
     19000   1.0879249      0.0023323615  -0.0017804642   21.998985      20.383416      1.6155685      0.015376175    75319.371    
     20000   1.1144506      0.0023323615   0.0025198298   22.190904      20.535944      1.6549592      0              76505.41     
     21000   1.0427751      0.0023323615   0.0011345349   22.099492      20.550971      1.548521       0.00040047813  76729.483    
     22000   1.0586695      0.0023323615   0.0017882747   22.05673       20.484606      1.5721242      0              76246.739    
     23000   1.0058426      0.0023323615  -0.0055245362   21.954628      20.460951      1.4936763      0.0027619031   75318.01     
     24000   0.98273442     0.0023323615   0.0015147357   21.862067      20.402707      1.4593606      0              74619.242    
     25000   0.95835343     0.0023323615   0.0017808774   21.937761      20.514606      1.4231548      0.00020839942  75493.754    
     26000   0.93993778     0.0023323615  -0.0021777292   21.884849      20.489042      1.3958076      0.0088889834   76399.47     
     27000   0.9308188      0.0023323615  -0.00011239942  21.842252      20.459986      1.3822659      0.021612409    75555.585    
     28000   1.0149581      0.0023323615   0.0041996387   21.906846      20.399633      1.5072129      0.0064059022   75789.201    
     29000   0.92841138     0.0023323615  -2.5398808e-05  21.987185      20.608494      1.3786909      0.0046112484   75925.999    
     30000   1.021043       0.0023323615   0.001589158    22.097958      20.581709      1.5162489      0.016799508    73251.825    
     31000   1.0465985      0.0023323615  -0.0021744286   22.037917      20.483718      1.5541987      0.0057879149   74401.258    
     32000   0.98907108     0.0023323615  -0.0015558606   22.044089      20.575318      1.4687705      0.009448173    75586.773    
     33000   1.0918536      0.0023323615  -0.0025643847   22.039275      20.417873      1.6214025      0              74648.592    
     34000   0.99801543     0.0023323615   0.0016279766   21.932339      20.450286      1.4820529      0.017384617    77217.954    
     35000   1.0352271      0.0023323615  -0.0052971711   22.076004      20.538692      1.5373122      0.00010473809  75701.883    
     36000   1.1141579      0.0023323615  -0.00093279925  22.222491      20.567966      1.6545245      0.00033678641  76713.972    
     37000   1.0369415      0.0023323615   0.00013065175  22.217841      20.677983      1.5398581      0.013788831    75976.515    
     38000   1.0515596      0.0023323615   0.0021717558   22.070766      20.5092        1.561566       0.0067894678   76112.375    
     39000   1.0238495      0.0023323615   0.00026414509  22.040141      20.519725      1.5204165      0.00044464649  68256.795    
     40000   1.0749111      0.0023323615  -0.0026849368   22.039327      20.443084      1.596243       0.012651334    72595.603    
     41000   0.99070886     0.0023323615  -0.0030385564   22.03241       20.561207      1.4712027      0.00092855646  77344.934    
     42000   0.95315224     0.0023323615   0.0019788197   21.965263      20.549832      1.4154311      0.020233689    75125.661    
     43000   1.0644183      0.0023323615  -0.0011168725   22.287172      20.706511      1.5806611      0.039694129    75370.559    
     44000   1.0253747      0.0023323615  -0.006676522    22.066233      20.543552      1.5226814      0              74420.565    
     45000   0.94179556     0.0023323615  -0.0047206018   21.970644      20.572077      1.3985664      0.019869988    74652.504    
     46000   1.0083495      0.0023323615  -0.0017646918   21.972114      20.474715      1.497399       0.00026040605  75173.246    
     47000   0.98767959     0.0023323615  -0.00080218158  22.091674      20.62497       1.4667042      0.024266258    75027.119    
     48000   1.1473449      0.0023323615  -0.0025885687   22.080512      20.376705      1.7038072      0.00065962995  75411.96     
     49000   1.0679312      0.0023323615   0.0017688272   21.970482      20.384604      1.5858779      0.014142422    76442.541    
     50000   0.9581935      0.0023323615   0.0014398836   21.955202      20.532284      1.4229173      0.0055011948   75932.992    
     51000   1.0215759      0.0023323615  -0.00093292688  21.934681      20.41764       1.5170402      0              75536.546    
     52000   0.98079591     0.0023323615   0.0040701936   21.977374      20.520892      1.4564819      0.0020862422   76404.093    
     53000   1.0090927      0.0023323615   0.0013324753   22.095438      20.596935      1.4985027      0              75425.691    
     54000   0.97519627     0.0023323615   0.0013260734   22.070151      20.621984      1.4481665      0.026885444    76414.859    
     55000   1.1805087      0.0023323615  -0.001586238    22.424088      20.671033      1.7530554      0.024690954    76197.675    
     56000   0.98387121     0.0023323615   0.0037155145   22.104425      20.643376      1.4610487      0.01435493     75829.441    
     57000   1.0723812      0.0023323615  -0.0037916262   22.122726      20.53024       1.592486       0.013635549    76181.102    
     58000   1.0152349      0.0023323615   0.00021908047  22.082827      20.575203      1.5076238      0.00077375639  75374.883    
     59000   1.1424502      0.0023323615  -0.0052108657   22.30072       20.604182      1.6965385      0.013308184    76867.401    
     60000   1.0359703      0.0023323615  -0.00097887545  22.188218      20.649802      1.538416       0.00011346294  75050.025    
     61000   1.1646839      0.0023323615  -0.002085017    22.239945      20.51039       1.7295556      0.012918477    77206.252    
     62000   1.101836       0.0023323615   0.0010338878   22.171386      20.53516       1.6362265      0.001396566    76170.518    
     63000   0.96616435     0.0023323615   0.00097550571  21.903821      20.469067      1.4347541      0.013027663    77525.63     
     64000   1.0068907      0.0023323615  -0.0020278726   22.061652      20.566419      1.4952327      0.013750276    75883.986    
     65000   0.98723233     0.0023323615   0.0022441476   22.031073      20.565033      1.46604        0.0066686189   76752.492    
     66000   1.0273881      0.0023323615  -0.0003515278   22.183579      20.657908      1.5256713      0              74471.592    
     67000   0.96528212     0.0023323615  -0.00014822656  21.9396        20.506156      1.4334439      0.010365557    76852.538    
     68000   1.069702       0.0023323615   9.4754668e-05  22.081119      20.492611      1.5885075      0.00049153926  73793.44     
     69000   1.1229502      0.0023323615   0.0011504079   22.200329      20.532748      1.6675811      0.0068454249   76772.567    
     70000   1.0062775      0.0023323615  -0.00085311964  22.094021      20.599699      1.4943221      0.013222355    75233.138    
     71000   1.0906935      0.0023323615   0.00015260357  22.145362      20.525682      1.6196798      0.018338513    75948.419    
     72000   1.010401       0.0023323615  -6.0487182e-06  22.154105      20.653659      1.5004455      0.0013793953   74401.756    
     73000   1.1177599      0.0023323615  -0.0034084797   22.254435      20.594562      1.6598735      0.00011231735  77713.175    
     74000   0.9768019      0.0023323615   0.00016143893  22.07312       20.622569      1.4505508      0.0084515956   75007.67     
     75000   1.1360996      0.0023323615   0.002159116    22.161595      20.474487      1.6871079      0.0089909162   76235.271    
     76000   0.97379329     0.0023323615  -0.00068458621  21.988928      20.542845      1.446083       0              75209.668    
     77000   0.94876793     0.0023323615  -0.0016073976   21.923496      20.514575      1.4089204      0.017745108    75224.293    
     78000   0.83947996     0.0023323615  -0.00062768559  21.726727      20.480099      1.2466277      0.0054510099   76106.692    
     79000   1.0090614      0.0023323615  -0.00080262643  22.068192      20.569736      1.4984562      0.00023011166  76844.554    
     80000   1.1217643      0.0023323615  -0.0038177864   22.367902      20.702082      1.66582        0.032902439    75887.038    
     81000   1.0240158      0.0023323615   0.00023547123  22.031597      20.510933      1.5206635      0.0068767308   75542.263    
     82000   1.003236       0.0023323615  -0.0022802982   21.894199      20.404393      1.4898055      0.019136282    73904.084    
     83000   1.0554159      0.0023323615   0.004011718    22.104562      20.537269      1.5672927      0.0080869707   73891.005    
     84000   0.83527346     0.0023323615  -0.0034122221   21.874648      20.634267      1.2403811      0.0030083664   75666.421    
     85000   1.036002       0.0023323615   0.0013573923   21.962923      20.42446       1.5384629      0.015709144    76707.193    
     86000   0.9432002      0.0023323615  -0.0032183248   21.913588      20.512936      1.4006523      0.013730309    76545.127    
     87000   0.95566008     0.0023323615  -0.00049614223  21.91653       20.497375      1.4191552      0.0035862035   75529.91     
     88000   0.93373351     0.0023323615  -0.00097093893  21.870485      20.483891      1.3865943      0.0018212145   75236.772    
     89000   0.9684944      0.0023323615  -0.00047342045  21.973429      20.535215      1.4382142      0.00087524744  75542.999    
     90000   0.98293324     0.0023323615  -0.0032204602   22.050919      20.591263      1.4596559      0.015353933    76936.31     
     91000   1.0832827      0.0023323615   0.0048517083   22.11977       20.511095      1.6086749      0.0052867789   77858.42     
     92000   0.85899662     0.0023323615  -0.0013049519   21.765697      20.490087      1.27561        0.0024124001   76386.55     
     93000   0.96176266     0.0023323615  -4.4223672e-05  21.874222      20.446004      1.4282176      0.0045653365   77304.671    
     94000   0.96019503     0.0023323615   0.00024459347  21.944954      20.519064      1.4258896      3.8053462e-05  76792.707    
     95000   0.94702149     0.0023323615  -0.0033658915   21.86315       20.456823      1.4063269      0              77423.645    
     96000   0.91119348     0.0023323615  -0.0013197298   21.825018      20.471896      1.3531223      0.00043282989  76139.78     
     97000   1.0016687      0.0023323615  -0.0019514304   22.013024      20.525546      1.487478       0.0048369955   75537.915    
     98000   1.02143        0.0023323615  -0.0057874974   22.177965      20.661142      1.5168235      0              74381.518    
     99000   1.032786       0.0023323615   0.0018228259   21.975336      20.441649      1.5336871      7.1595851e-05  77651.568    
    100000   1.0594928      0.0023323615   0.0036169719   22.011024      20.437677      1.5733468      0.00032948157  75876.541    
    100362   1.1904942      0.0023323615  -0.00089755607  22.316856      20.548972      1.7678839      0.00063845255  74714.598    
Loop time of 1.31975 on 1 procs for 100000 steps with 100 atoms

Performance: 32733490.925 tau/day, 75771.970 timesteps/s
99.1% CPU use with 1 MPI tasks x 1 OpenMP threads

MPI task timing breakdown:
Section |  min time  |  avg time  |  max time  |%varavg| %total
---------------------------------------------------------------
Pair    | 0.049558   | 0.049558   | 0.049558   |   0.0 |  3.76
Bond    | 0.1272     | 0.1272     | 0.1272     |   0.0 |  9.64
Neigh   | 0.80498    | 0.80498    | 0.80498    |   0.0 | 61.00
Comm    | 0.057527   | 0.057527   | 0.057527   |   0.0 |  4.36
Output  | 0.0019583  | 0.0019583  | 0.0019583  |   0.0 |  0.15
Modify  | 0.24525    | 0.24525    | 0.24525    |   0.0 | 18.58
Other   |            | 0.03327    |            |       |  2.52

Nlocal:            100 ave         100 max         100 min
Histogram: 1 0 0 0 0 0 0 0 0 0
Nghost:             60 ave          60 max          60 min
Histogram: 1 0 0 0 0 0 0 0 0 0
Neighs:             36 ave          36 max          36 min
Histogram: 1 0 0 0 0 0 0 0 0 0

Total # of neighbors = 36
Ave neighs/atom = 0.36
Ave special neighs/atom = 1.98
Neighbor list builds = 9821
Dangerous builds = 8265
unfix           nvtSoft
unfix           rampSoft
reset_timestep  0

write_data      ${outputfile_relaxed}
write_data      5_relaxed.data
System init for write_data ...
Generated 0 of 6 mixed pair_coeff terms from geometric mixing rule
WARNING: Communication cutoff 1.3 is shorter than a bond length based estimate of 1.7550000000000001. This may lead to errors. (src/comm.cpp:727)
WARNING: Not all mixed pair coeffs generated from mixing. Use write_data with 'pair ij' option to store all pair coeffs. (src/write_data.cpp:309)

###########################################################################
# Full LJ with Coulomb
######################################################################

# Cutoffs and parameters:
# - Values: Marcel Verkade's Bachelor Thesis
# - Mapping to atom groups: Patrick Onck's paper
# - 1: aliphatic, 2: aromatic, 3: anion, 4: cation
# pair_style	lj/cut/coul/cut <lj_cut_global> <coul_cut_global>
# pair_coeff	<type_1>  <type_2>  <eps>  <sigma>  <r_cut_lj>  <r_cut_coul>

# Problem: Onck's model is much more complex, and Marcel has no sigma reported
# Using sigma=1 randomly

variable		glob_ljeps equal 1.0
variable		glob_ljsig 	equal 1.0
variable		glob_coulcut equal 10.0
variable		att_ljcut equal 2.50
variable		rep_ljcut equal 1.12

pair_style		lj/cut/coul/cut 						${att_ljcut} 	${glob_coulcut}
pair_style		lj/cut/coul/cut 						2.5 	${glob_coulcut}
pair_style		lj/cut/coul/cut 						2.5 	10
pair_coeff		1 1 	${glob_ljeps} 	${glob_ljsig}	${att_ljcut} 	${glob_coulcut}
pair_coeff		1 1 	1 	${glob_ljsig}	${att_ljcut} 	${glob_coulcut}
pair_coeff		1 1 	1 	1	${att_ljcut} 	${glob_coulcut}
pair_coeff		1 1 	1 	1	2.5 	${glob_coulcut}
pair_coeff		1 1 	1 	1	2.5 	10
pair_coeff		1 2 	${glob_ljeps} 	${glob_ljsig}	${att_ljcut} 	${glob_coulcut}
pair_coeff		1 2 	1 	${glob_ljsig}	${att_ljcut} 	${glob_coulcut}
pair_coeff		1 2 	1 	1	${att_ljcut} 	${glob_coulcut}
pair_coeff		1 2 	1 	1	2.5 	${glob_coulcut}
pair_coeff		1 2 	1 	1	2.5 	10
pair_coeff		1 3 	${glob_ljeps} 	${glob_ljsig}	${rep_ljcut} 	${glob_coulcut}
pair_coeff		1 3 	1 	${glob_ljsig}	${rep_ljcut} 	${glob_coulcut}
pair_coeff		1 3 	1 	1	${rep_ljcut} 	${glob_coulcut}
pair_coeff		1 3 	1 	1	1.12 	${glob_coulcut}
pair_coeff		1 3 	1 	1	1.12 	10
pair_coeff		1 4 	${glob_ljeps} 	${glob_ljsig}	${rep_ljcut} 	${glob_coulcut}
pair_coeff		1 4 	1 	${glob_ljsig}	${rep_ljcut} 	${glob_coulcut}
pair_coeff		1 4 	1 	1	${rep_ljcut} 	${glob_coulcut}
pair_coeff		1 4 	1 	1	1.12 	${glob_coulcut}
pair_coeff		1 4 	1 	1	1.12 	10
pair_coeff		2 2 	${glob_ljeps} 	${glob_ljsig}	${att_ljcut} 	${glob_coulcut}
pair_coeff		2 2 	1 	${glob_ljsig}	${att_ljcut} 	${glob_coulcut}
pair_coeff		2 2 	1 	1	${att_ljcut} 	${glob_coulcut}
pair_coeff		2 2 	1 	1	2.5 	${glob_coulcut}
pair_coeff		2 2 	1 	1	2.5 	10
pair_coeff		2 3 	${glob_ljeps} 	${glob_ljsig}	${rep_ljcut} 	${glob_coulcut}
pair_coeff		2 3 	1 	${glob_ljsig}	${rep_ljcut} 	${glob_coulcut}
pair_coeff		2 3 	1 	1	${rep_ljcut} 	${glob_coulcut}
pair_coeff		2 3 	1 	1	1.12 	${glob_coulcut}
pair_coeff		2 3 	1 	1	1.12 	10
pair_coeff		2 4 	${glob_ljeps} 	${glob_ljsig}	${att_ljcut} 	${glob_coulcut}
pair_coeff		2 4 	1 	${glob_ljsig}	${att_ljcut} 	${glob_coulcut}
pair_coeff		2 4 	1 	1	${att_ljcut} 	${glob_coulcut}
pair_coeff		2 4 	1 	1	2.5 	${glob_coulcut}
pair_coeff		2 4 	1 	1	2.5 	10
pair_coeff		3 3 	${glob_ljeps} 	${glob_ljsig}	${rep_ljcut} 	${glob_coulcut}
pair_coeff		3 3 	1 	${glob_ljsig}	${rep_ljcut} 	${glob_coulcut}
pair_coeff		3 3 	1 	1	${rep_ljcut} 	${glob_coulcut}
pair_coeff		3 3 	1 	1	1.12 	${glob_coulcut}
pair_coeff		3 3 	1 	1	1.12 	10
pair_coeff		3 4 	${glob_ljeps} 	${glob_ljsig}	${att_ljcut} 	${glob_coulcut}
pair_coeff		3 4 	1 	${glob_ljsig}	${att_ljcut} 	${glob_coulcut}
pair_coeff		3 4 	1 	1	${att_ljcut} 	${glob_coulcut}
pair_coeff		3 4 	1 	1	2.5 	${glob_coulcut}
pair_coeff		3 4 	1 	1	2.5 	10
pair_coeff		4 4 	${glob_ljeps} 	${glob_ljsig}	${rep_ljcut} 	${glob_coulcut}
pair_coeff		4 4 	1 	${glob_ljsig}	${rep_ljcut} 	${glob_coulcut}
pair_coeff		4 4 	1 	1	${rep_ljcut} 	${glob_coulcut}
pair_coeff		4 4 	1 	1	1.12 	${glob_coulcut}
pair_coeff		4 4 	1 	1	1.12 	10


fix             noDriftRot 	all momentum 10 linear 1 1 1 angular
fix             nvt1 		all nvt temp ${Temp} ${Temp} 0.5
fix             nvt1 		all nvt temp 1 ${Temp} 0.5
fix             nvt1 		all nvt temp 1 1 0.5

# dump          assemble 	all custom 1000 				${outputfile_selfasb} id type xu yu zu vx vy vz
dump            lindump 	all custom ${subsample_rate} 	${outputfile_trajlin} id type xu yu zu vx vy vz
dump            lindump 	all custom 1000 	${outputfile_trajlin} id type xu yu zu vx vy vz
dump            lindump 	all custom 1000 	6_b_trajlin.data id type xu yu zu vx vy vz

run             ${runtime}
run             1000000
Generated 0 of 6 mixed pair_coeff terms from geometric mixing rule
Neighbor list info ...
  update every 1 steps, delay 10 steps, check yes
  max neighbors/atom: 2000, page size: 100000
  master list distance cutoff = 10.3
  ghost atom cutoff = 10.3
  binsize = 5.15, bins = 7 7 7
  1 neighbor lists, perpetual/occasional/extra = 1 0 0
  (1) pair lj/cut/coul/cut, perpetual
      attributes: half, newton on
      pair build: half/bin/newton
      stencil: half/bin/3d
      bin: standard
Per MPI rank memory allocation (min/avg/max) = 7.712 | 7.712 | 7.712 Mbytes
   Step          Temp         Density         Press          TotEng         PotEng         KinEng         E_pair         S/CPU     
         0   1.1904942      0.0023323615  -0.0017566264   21.829366      20.061482      1.7678839     -0.48685182     0            
      1000   1.0910688      0.0023323615  -0.0016562474   21.032648      19.412411      1.6202372     -0.95599721     32840.526    
      2000   1.0704207      0.0023323615   0.0015967667   21.057767      19.468192      1.5895747     -0.89256525     29809.382    
      3000   1.0784551      0.0023323615  -0.0003223457   20.905242      19.303736      1.6015059     -1.1831026      24777.892    
      4000   1.0233262      0.0023323615   0.0014470732   20.490203      18.970563      1.5196394     -1.5885268      20036.763    
      5000   1.0003043      0.0023323615   0.00067398994  20.361582      18.87613       1.4854519     -1.8016616      18153.642    
      6000   0.99381534     0.0023323615  -0.0031136117   19.846978      18.371162      1.4758158     -2.2193065      17942.64     
      7000   1.0219797      0.0023323615  -0.00091838292  20.145555      18.627915      1.5176398     -1.8577806      17998.361    
      8000   0.98146427     0.0023323615   0.0048621578   19.878761      18.421287      1.4574744     -2.025121       18215.738    
      9000   0.92126116     0.0023323615  -9.4481457e-06  19.922406      18.554333      1.3680728     -1.9360591      18028.281    
     10000   0.98451438     0.0023323615   0.0017711806   19.838979      18.376975      1.4620039     -2.0937811      18051.627    
     11000   0.92683856     0.0023323615   0.0074429268   19.557772      18.181417      1.3763553     -2.3774918      17905.557    
     12000   1.1013027      0.0023323615  -0.00025077623  20.367254      18.73182       1.6354345     -1.8051233      18010.871    
     13000   0.92879683     0.0023323615   2.5022592e-05  20.336505      18.957241      1.3792633     -1.5904291      18253.724    
     14000   1.0449829      0.0023323615   0.0011250908   20.283662      18.731863      1.5517995     -1.841568       18044.183    
     15000   1.1106989      0.0023323615   0.001678542    20.472437      18.82305       1.6493879     -1.6954262      18089.197    
     16000   1.1266437      0.0023323615   0.0025868825   20.477575      18.804509      1.673066      -1.7240795      18283.975    
     17000   0.91424323     0.0023323615  -0.0024586959   19.862373      18.504722      1.3576512     -1.9703792      17901.729    
     18000   1.1000991      0.0023323615  -0.0033139332   20.226059      18.592412      1.6336472     -2.0569557      17729.14     
     19000   1.0579256      0.0023323615  -0.0024595993   20.356775      18.785755      1.5710196     -1.7648069      17883.366    
     20000   1.0582978      0.0023323615   0.0008974242   20.113253      18.54168       1.5715723     -1.9926553      17764.803    
     21000   0.89351185     0.0023323615   0.0021576309   19.969005      18.64214       1.3268651     -1.8597169      17795.408    
     22000   0.92140804     0.0023323615  -0.001312467    19.521081      18.15279       1.3682909     -2.2191774      17778.504    
     23000   1.1148118      0.0023323615   0.0015479996   20.484348      18.828852      1.6554955     -1.7792672      18002.253    
     24000   0.95215211     0.0023323615   0.0056381967   19.783419      18.369473      1.4139459     -2.1840734      17747.045    
     25000   1.1469698      0.0023323615   0.002314145    20.106094      18.402844      1.7032502     -2.0714151      17899.915    
     26000   1.1004624      0.0023323615   0.0054083858   20.195439      18.561252      1.6341867     -1.9885053      17838.77     
     27000   0.99569813     0.0023323615  -0.0029714085   19.649677      18.171065      1.4786117     -2.2339035      17831.625    
     28000   1.009308       0.0023323615  -0.0010109567   19.973678      18.474856      1.4988223     -2.1165172      17786.352    
     29000   0.98926819     0.0023323615  -0.00067501997  19.933784      18.464721      1.4690633     -2.1457548      17901.53     
     30000   0.92343727     0.0023323615  -0.0018063534   19.874655      18.503351      1.3713043     -2.1107426      17958.917    
     31000   1.0071006      0.0023323615   8.4046168e-05  20.121417      18.625873      1.4955444     -2.0079751      17878.475    
     32000   0.98170232     0.0023323615   0.0017004004   20.07475       18.616922      1.4578279     -1.9272602      17772.167    
     33000   1.0670092      0.0023323615  -0.0011710999   20.046013      18.461505      1.5845086     -2.0232397      17808.01     
     34000   1.0372359      0.0023323615  -0.0028626157   20.074838      18.534543      1.5402953     -1.9887871      17787.759    
     35000   1.0957845      0.0023323615  -0.0021350281   20.194101      18.566861      1.62724       -1.8995459      17839.631    
     36000   1.1276462      0.0023323615  -0.0017285882   20.317595      18.64304       1.6745546     -1.8144207      17852.829    
     37000   1.0924397      0.0023323615   0.0055783559   20.178772      18.556499      1.6222729     -1.8949972      17670.203    
     38000   1.2056304      0.0023323615   0.001456938    20.615981      18.82562       1.7903611     -1.6955798      17711.485    
     39000   1.1348731      0.0023323615  -0.0036764834   20.47085       18.785564      1.6852865     -1.8640242      17657.612    
     40000   0.99417674     0.0023323615   0.002834719    20.174769      18.698417      1.4763525     -1.9786023      17639.225    
     41000   0.81334439     0.0023323615  -0.00036448368  19.854105      18.646289      1.2078164     -1.7591081      17777.586    
     42000   0.89517669     0.0023323615  -0.00052489918  19.925882      18.596545      1.3293374     -1.9476967      17804.217    
     43000   0.91020731     0.0023323615  -0.0023626126   20.052724      18.701066      1.3516579     -1.8559787      17649.222    
     44000   0.99707137     0.0023323615  -0.00039985133  20.014113      18.533462      1.480651      -1.9686863      17836.057    
     45000   1.1911362      0.0023323615  -0.00063528331  20.485515      18.716678      1.7688373     -1.7967018      17869.116    
     46000   1.0422025      0.0023323615  -0.0031722098   20.25599       18.708319      1.5476707     -1.789554       17758.937    
     47000   0.89263509     0.0023323615  -0.0050292268   20.122484      18.796921      1.3255631     -1.741866       17785.452    
     48000   1.0207442      0.0023323615  -0.002188762    20.365693      18.849887      1.5158052     -1.5509028      17904.93     
     49000   1.1022623      0.0023323615   0.00055676787  20.202072      18.565212      1.6368596     -1.943409       17840.642    
     50000   1.0868173      0.0023323615  -0.00050899877  20.155286      18.541362      1.6139237     -2.0381961      17802.556    
     51000   1.0417656      0.0023323615  -0.0016420235   19.840389      18.293367      1.5470219     -2.2054726      17649.518    
     52000   0.91436768     0.0023323615   0.0042236098   19.897216      18.53938       1.357836      -2.0108169      17863.075    
     53000   0.88821311     0.0023323615   0.0030784571   19.728305      18.409309      1.3189965     -2.1110364      17852.576    
     54000   0.8879527      0.0023323615   0.0031661099   19.681239      18.362629      1.3186098     -2.1123704      17742.657    
     55000   1.0508323      0.0023323615   0.003578978    19.946328      18.385842      1.560486      -2.0409511      17821.097    
     56000   1.1002411      0.0023323615  -0.0016526566   20.359885      18.726027      1.633858      -1.785104       17725.579    
     57000   0.93943997     0.0023323615   0.004302611    20.070978      18.67591       1.3950684     -1.8536678      17690.763    
     58000   0.98253171     0.0023323615  -0.0029020537   20.132335      18.673276      1.4590596     -1.9016251      17834.882    
     59000   1.0865355      0.0023323615   0.0022804959   19.943031      18.329525      1.6135052     -2.2807143      17865.725    
     60000   1.0289296      0.0023323615   0.00028705455  20.170317      18.642356      1.5279604     -1.889854       17748.892    
     61000   0.9730651      0.0023323615  -0.00333109     20.207698      18.762696      1.4450017     -1.8030372      17888.757    
     62000   0.84303615     0.0023323615  -0.0014444972   19.681862      18.429953      1.2519087     -1.989698       17707.014    
     63000   0.85791661     0.0023323615   0.0017786552   19.837995      18.563989      1.2740062     -1.9891273      16767.189    
     64000   1.0278253      0.0023323615   0.0039097804   19.675652      18.149331      1.5263205     -2.2609042      17673.304    
     65000   0.91957331     0.0023323615  -0.0028126076   19.997612      18.632046      1.3655664     -1.8331862      17652.833    
     66000   0.89100779     0.0023323615   0.00094289575  19.778842      18.455696      1.3231466     -1.9971296      17610.671    
     67000   1.0283431      0.0023323615   0.0038605599   19.953044      18.425954      1.5270895     -1.9741735      17586.989    
     68000   1.0221569      0.0023323615  -0.00048151354  20.327208      18.809305      1.517903      -1.6640331      17616.57     
     69000   1.0341204      0.0023323615  -0.005411473    20.295942      18.760274      1.5356688     -1.7172451      17604.195    
     70000   1.1004578      0.0023323615   0.0028013656   20.517728      18.883548      1.6341799     -1.6031643      17384.007    
     71000   0.91110476     0.0023323615   0.0031407994   19.847704      18.494714      1.3529906     -1.9509955      17596.147    
     72000   0.92029856     0.0023323615  -0.0029617745   20.167081      18.800437      1.3666434     -1.758828       17626.111    
     73000   1.0013885      0.0023323615  -0.0012866851   19.938435      18.451373      1.4870619     -2.0639966      17557.825    
     74000   0.95295719     0.0023323615  -0.0010647567   20.037843      18.622702      1.4151414     -1.8757192      17645.231    
     75000   1.0499079      0.0023323615  -0.0062513078   19.870305      18.311192      1.5591132     -2.1751516      17708.865    
     76000   0.84760553     0.0023323615  -0.00017328129  19.824158      18.565464      1.2586942     -1.986333       17726.329    
     77000   1.1028451      0.0023323615  -0.00061608738  20.039342      18.401617      1.637725      -2.0379371      17551.878    
     78000   1.00295        0.0023323615   0.00015427199  19.857193      18.367812      1.4893807     -2.1802376      17520.714    
     79000   0.95583924     0.0023323615  -0.0010429072   20.270058      18.850637      1.4194213     -1.8227271      17675.078    
     80000   1.0229454      0.0023323615   0.0016484118   20.209867      18.690793      1.5190739     -1.8686135      17914.938    
     81000   0.98109149     0.0023323615  -0.0020742792   19.938229      18.481308      1.4569209     -2.0006525      17904.391    
     82000   1.047848       0.0023323615  -0.0027416994   20.235928      18.679874      1.5560543     -1.9779523      17743.351    
     83000   1.0326477      0.0023323615   0.0015410621   20.108698      18.575216      1.5334818     -1.9636462      17668.442    
     84000   0.97472075     0.0023323615   0.0023841907   20.03779       18.59033       1.4474603     -1.9322486      17746.339    
     85000   1.1281959      0.0023323615  -0.0024099962   19.864471      18.1891        1.6753709     -2.1854091      17815.638    
     86000   0.88673826     0.0023323615   0.001338975    19.819112      18.502306      1.3168063     -2.0164116      17798.575    
     87000   0.95268082     0.0023323615  -0.0015210366   20.109867      18.695136      1.414731      -1.9425242      17759.743    
     88000   0.99956984     0.0023323615  -0.0029343845   20.257316      18.772955      1.4843612     -1.7193355      17956.862    
     89000   0.97428064     0.0023323615  -0.0039555737   20.190624      18.743817      1.4468067     -1.832512       17799.172    
     90000   1.1613238      0.0023323615  -0.0005244886   20.428234      18.703669      1.7245658     -1.8307695      17931.551    
     91000   0.97589604     0.0023323615  -0.0017018777   19.911741      18.462535      1.4492056     -2.0750432      17859.588    
     92000   1.0846609      0.0023323615  -0.001817623    20.045768      18.435047      1.6107215     -2.1003606      17786.995    
     93000   1.0077805      0.0023323615  -0.0016038627   20.029959      18.533405      1.4965541     -1.979954       17872.655    
     94000   0.90748722     0.0023323615   0.0020621818   19.722521      18.374902      1.3476185     -2.1412209      17762.236    
     95000   0.92060737     0.0023323615  -0.0012074312   19.826968      18.459866      1.3671019     -1.96077        17601.69     
     96000   0.9107446      0.0023323615   0.0001802227   19.645734      18.293278      1.3524557     -2.1869712      17612.715    
     97000   0.93576068     0.0023323615   0.004111859    19.751811      18.362206      1.3896046     -2.0381849      17651.837    
     98000   1.1030807      0.0023323615   0.0022650526   20.338612      18.700538      1.6380748     -1.885288       17803.687    
     99000   1.00618        0.0023323615  -0.0024547425   19.869594      18.375416      1.4941774     -2.0647391      17833.084    
    100000   0.89406779     0.0023323615  -0.00068805003  19.814816      18.487125      1.3276907     -2.0208204      17821.027    
    101000   0.99919725     0.0023323615   0.0070725622   19.932688      18.44888       1.4838079     -1.9628585      17852.634    
    102000   0.92459165     0.0023323615  -0.0043647881   20.094325      18.721306      1.3730186     -1.8104607      17775.75     
    103000   1.0387843      0.0023323615   0.0024973939   19.878249      18.335655      1.5425947     -2.180066       17700.9      
    104000   1.0721967      0.0023323615   0.0036025255   20.040626      18.448414      1.592212      -2.161661       17666.547    
    105000   1.0395446      0.0023323615  -0.00042167952  20.549035      19.005312      1.5437237     -1.6613954      17862.525    
    106000   1.0988834      0.0023323615  -0.0011035782   19.907191      18.275349      1.6318419     -2.0897466      17830.842    
    107000   0.97381409     0.0023323615   0.00085952256  20.324208      18.878094      1.4461139     -1.6402326      17783.059    
    108000   1.0908758      0.0023323615   0.0041549224   20.309045      18.689095      1.6199506     -1.8680151      17780.74     
    109000   0.964008       0.0023323615   0.0010599089   20.055677      18.624126      1.4315519     -1.8932217      17834.853    
    110000   1.0327808      0.0023323615   0.0011450016   20.148086      18.614407      1.5336795     -1.9303596      17723.936    
    111000   1.108037       0.0023323615   0.0011683338   19.987569      18.342134      1.6454349     -2.1355751      17695.515    
    112000   0.98860946     0.0023323615  -0.003070636    20.029626      18.561541      1.468085      -2.0321074      17669.587    
    113000   0.9363666      0.0023323615  -0.00069197651  19.690391      18.299887      1.3905044     -2.1762343      17664.987    
    114000   0.9942112      0.0023323615  -0.00032998922  19.798811      18.322408      1.4764036     -2.2637413      17683.533    
    115000   1.0603789      0.0023323615  -0.00049927391  19.911562      18.336899      1.5746627     -2.1176626      17552.622    
    116000   1.048654       0.0023323615  -0.00087332095  20.048912      18.491661      1.5572512     -2.0406715      17617.223    
    117000   0.91923464     0.0023323615   0.001230653    19.70554       18.340477      1.3650634     -2.0738846      17735.731    
    118000   1.0248703      0.0023323615  -0.0027730635   19.891183      18.369251      1.5219324     -2.1896491      17752.901    
    119000   1.1732636      0.0023323615   0.0013406397   20.486539      18.744242      1.7422965     -1.8630751      17689.114    
    120000   1.0145817      0.0023323615   0.0059491284   20.090166      18.583512      1.5066539     -1.9926297      17759.699    
    121000   1.1817         0.0023323615  -0.0020572463   20.260202      18.505378      1.7548245     -1.9996234      17698.298    
    122000   0.92799992     0.0023323615  -0.003584884    19.778702      18.400623      1.3780799     -2.0730195      17810.485    
    123000   0.94965631     0.0023323615  -0.0017793389   20.190167      18.779927      1.4102396     -1.9014066      17891.569    
    124000   1.1294145      0.0023323615  -0.0002989874   20.152907      18.475726      1.6771805     -2.0686602      17688.738    
    125000   0.95023406     0.0023323615   0.00012425715  19.841282      18.430184      1.4110976     -2.1188912      17847.686    
    126000   1.0054212      0.0023323615  -0.0006430384   19.881504      18.388454      1.4930504     -2.2404295      17713.528    
    127000   0.98988533     0.0023323615   0.0033456994   20.048277      18.578297      1.4699797     -1.990024       17870.05     
    128000   1.0502146      0.0023323615   0.0039089181   20.118374      18.558805      1.5595686     -2.000733       17636.963    
    129000   0.95285361     0.0023323615   0.0036195649   19.857221      18.442234      1.4149876     -2.0868691      17737.184    
    130000   0.88555732     0.0023323615  -0.0045076247   19.879101      18.564048      1.3150526     -1.9911053      17680.967    
    131000   1.0633791      0.0023323615   0.0014718347   20.034755      18.455637      1.5791179     -2.087463       17572.625    
    132000   0.93479447     0.0023323615  -0.00095389653  19.980781      18.592611      1.3881698     -1.9968966      17627.662    
    133000   0.98279498     0.0023323615  -0.0051918315   20.045054      18.585603      1.4594506     -2.0016539      17875.139    
    134000   1.2567276      0.0023323615  -0.0050342734   20.338435      18.472194      1.8662405     -2.0701802      17840.996    
    135000   0.99051859     0.0023323615  -0.00011382662  19.966542      18.495621      1.4709201     -2.1383385      17643.126    
    136000   0.96198659     0.0023323615   0.0034163935   19.672284      18.243734      1.4285501     -2.2136869      17683.843    
    137000   0.92300973     0.0023323615   0.0012629998   19.903364      18.532695      1.3706695     -2.0988655      17670.4      
    138000   1.006531       0.0023323615  -0.001992253    19.932146      18.437448      1.4946985     -2.063373       17587.395    
    139000   0.96058203     0.0023323615  -0.0016840058   19.733092      18.306628      1.4264643     -2.1725332      17771.474    
    140000   0.89761112     0.0023323615  -0.00052456547  19.911226      18.578273      1.3329525     -2.0402431      17763.27     
    141000   1.0230791      0.0023323615   0.0023166878   20.044265      18.524993      1.5192725     -2.0135142      17677.698    
    142000   1.1470967      0.0023323615   0.0048409094   20.088042      18.384603      1.7034386     -2.1089334      17699.246    
    143000   0.94948669     0.0023323615  -0.0025239436   19.950732      18.540744      1.4099877     -2.0080758      17805.224    
    144000   0.97947491     0.0023323615   0.0021105566   20.030837      18.576317      1.4545202     -1.9601162      17882.908    
    145000   1.0851558      0.0023323615  -0.00073629028  20.12445       18.512994      1.6114564     -2.0326559      17789.813    
    146000   0.98883446     0.0023323615   0.0031317301   20.035367      18.566947      1.4684192     -1.9103388      17851.667    
    147000   0.96770342     0.0023323615   0.0018394149   20.105399      18.66836       1.4370396     -1.9168948      17805.173    
    148000   1.0496705      0.0023323615   0.003249224    19.990581      18.43182       1.5587606     -2.1157133      17701.82     
    149000   1.0736826      0.0023323615  -0.0029697761   20.154326      18.559908      1.5944187     -2.0177229      17935.469    
    150000   0.91581405     0.0023323615  -0.0057396987   20.122821      18.762837      1.3599839     -1.8433152      17775.823    
    151000   1.1143848      0.0023323615   0.0045124206   19.990103      18.335241      1.6548614     -2.2059644      17739.11     
    152000   0.96816922     0.0023323615   0.00052216361  19.783204      18.345472      1.4377313     -2.1063072      17586.778    
    153000   0.87012689     0.0023323615   0.0021640711   19.563896      18.271757      1.2921384     -2.1081378      17685.914    
    154000   0.96223934     0.0023323615   0.0019879007   19.995581      18.566656      1.4289254     -2.0384801      17650.667    
    155000   1.1062395      0.0023323615  -0.0011348603   20.114477      18.471711      1.6427656     -2.0384533      17769.332    
    156000   0.90954592     0.0023323615  -0.0018027121   19.749981      18.399305      1.3506757     -2.108042       17820.024    
    157000   1.0931519      0.0023323615   0.00440746     20.087155      18.463824      1.6233305     -2.0499664      17975.995    
    158000   0.93200043     0.0023323615  -0.0036992501   20.191385      18.807365      1.3840206     -1.7790945      17799.705    
    159000   0.96075179     0.0023323615  -0.001113471    19.981448      18.554732      1.4267164     -1.9911038      17824.155    
    160000   0.98055361     0.0023323615  -0.0033957984   19.785503      18.329381      1.4561221     -2.0520009      17797.03     
    161000   0.91781828     0.0023323615   0.0036271248   19.749411      18.386451      1.3629601     -2.1754598      17836.998    
    162000   0.96750937     0.0023323615  -0.00012028089  20.185387      18.748635      1.4367514     -1.8002955      17802.985    
    163000   0.99013356     0.0023323615  -0.0016670656   20.238361      18.768013      1.4703483     -1.7386086      17701.493    
    164000   0.94618321     0.0023323615   0.0045920392   20.17793       18.772848      1.4050821     -1.9487862      17875.401    
    165000   1.0398641      0.0023323615  -0.0017879291   20.148179      18.603981      1.5441982     -1.9273447      17823.42     
    166000   1.0589775      0.0023323615   0.0013693981   19.88267       18.310089      1.5725816     -2.1146405      17920.094    
    167000   0.95962814     0.0023323615  -0.0023082478   20.110126      18.685078      1.4250478     -1.8377528      17890.21     
    168000   0.90119413     0.0023323615  -0.0022501914   19.843559      18.505286      1.3382733     -1.9714686      17993.198    
    169000   1.0181434      0.0023323615  -0.0017628607   19.803911      18.291968      1.5119429     -2.2005445      17918.244    
    170000   1.0446833      0.0023323615   0.0038403434   20.132991      18.581637      1.5513548     -1.9713242      17928.781    
    171000   1.1203826      0.0023323615   4.7865191e-06  19.899628      18.23586       1.6637682     -2.2732211      17896.802    
    172000   0.92047359     0.0023323615  -0.00054268215  19.762131      18.395228      1.3669033     -2.0701394      17879.077    
    173000   0.95804323     0.0023323615  -0.0015862759   19.995567      18.572873      1.4226942     -1.8834763      17834.321    
    174000   1.0289157      0.0023323615  -0.004199917    20.094269      18.56633       1.5279398     -1.9503152      17875.955    
    175000   1.0560552      0.0023323615  -0.0010771876   20.158317      18.590075      1.568242      -1.9875714      17857.987    
    176000   0.89268754     0.0023323615   0.0022212685   19.88015       18.554509      1.325641      -2.0337017      17849.767    
    177000   1.0727161      0.0023323615  -0.00056020192  20.166839      18.573856      1.5929834     -1.9032437      17863.123    
    178000   0.97301397     0.0023323615  -0.00026730846  19.694266      18.249341      1.4449257     -2.2179122      17847.411    
    179000   1.016028       0.0023323615   0.0017942535   20.069684      18.560883      1.5088016     -1.8914476      17844.412    
    180000   0.92727089     0.0023323615  -0.0014883925   19.870711      18.493714      1.3769973     -1.9396559      17859.94     
    181000   0.88223891     0.0023323615  -0.00089400096  19.488902      18.178777      1.3101248     -2.2504512      17800.677    
    182000   1.2195383      0.0023323615  -0.0020119486   20.164212      18.353197      1.8110143     -2.2060907      17705.638    
    183000   1.1192362      0.0023323615  -0.0011243913   20.215488      18.553423      1.6620657     -2.0177646      17559.795    
    184000   0.88230489     0.0023323615  -0.00024101094  20.060217      18.749994      1.3102228     -1.8663969      17715.858    
    185000   1.0528933      0.0023323615  -0.00079314912  19.973484      18.409938      1.5635466     -2.1926963      17669.781    
    186000   1.0802139      0.0023323615   0.0019423793   20.024091      18.419974      1.6041176     -2.169181       17653.717    
    187000   0.93634466     0.0023323615   0.0038627018   19.981204      18.590732      1.3904718     -2.0581723      17752.904    
    188000   1.0188407      0.0023323615  -0.0010822513   19.963113      18.450134      1.5129784     -2.1156475      17723.493    
    189000   1.0738452      0.0023323615   0.00068469151  20.405039      18.810379      1.5946601     -1.8313162      17766.669    
    190000   0.86990817     0.0023323615  -0.00029778634  19.513488      18.221674      1.2918136     -2.2679257      17677.36     
    191000   0.97593676     0.0023323615  -0.0021755306   19.938032      18.488766      1.4492661     -2.0480841      17700.781    
    192000   1.0044304      0.0023323615  -0.001091468    20.106143      18.614564      1.4915792     -2.0240505      17796.703    
    193000   0.99511647     0.0023323615   0.0023364731   20.203965      18.726217      1.477748      -1.8583466      17901.372    
    194000   0.87424154     0.0023323615   0.0032077561   20.004833      18.706584      1.2982487     -1.7454659      17945.75     
    195000   1.0870192      0.0023323615  -0.00020977406  19.850743      18.23652       1.6142235     -2.2021892      17913.799    
    196000   0.98519397     0.0023323615  -0.003367231    20.045163      18.58215       1.463013      -1.9348887      17826.084    
    197000   0.98716259     0.0023323615   0.0032850206   19.963551      18.497615      1.4659364     -2.013283       17914.369    
    198000   0.92202745     0.0023323615   0.00037494146  20.098123      18.728912      1.3692108     -1.7723065      17886.045    
    199000   1.0137642      0.0023323615   0.0013415149   19.904888      18.399448      1.5054399     -2.0654358      17870.28     
    200000   0.92946563     0.0023323615   0.0034455494   19.887415      18.507159      1.3802565     -2.0496412      17805.522    
    201000   1.0387563      0.0023323615   0.00083615886  20.151486      18.608933      1.5425531     -1.913961       18004.669    
    202000   0.90832543     0.0023323615  -0.0019516179   19.840423      18.49156       1.3488633     -1.9741134      17947.376    
    203000   0.95326316     0.0023323615   0.00084651738  19.906685      18.491089      1.4155958     -2.1369528      17847.408    
    204000   1.1479975      0.0023323615  -0.0021823712   20.249443      18.544667      1.7047762     -1.9250424      17791.688    
    205000   0.98007873     0.0023323615  -0.0030874215   19.759207      18.303791      1.4554169     -2.1157996      17604.179    
    206000   0.97077207     0.0023323615  -0.00095128339  19.873699      18.432103      1.4415965     -2.0839142      17777.051    
    207000   0.88458932     0.0023323615   0.0025430363   19.623537      18.309922      1.3136151     -2.1196085      17789.414    
    208000   1.0548321      0.0023323615   0.0020242299   20.27047       18.704045      1.5664257     -1.806905       17852.148    
    209000   1.05892        0.0023323615  -0.0023146946   20.323373      18.750876      1.5724962     -1.8613565      17926.792    
    210000   1.1136918      0.0023323615   0.00080775648  20.003149      18.349317      1.6538323     -2.0965343      17961.144    
    211000   1.2024488      0.0023323615   0.0044445089   20.099567      18.31393       1.7856365     -2.0841665      17859.633    
    212000   1.0280194      0.0023323615  -0.0026332912   20.293324      18.766715      1.5266088     -1.8400348      17951.844    
    213000   0.88049989     0.0023323615   0.0058485204   19.885137      18.577595      1.3075423     -1.971921       17900.47     
    214000   0.97158789     0.0023323615   0.0016441089   20.108824      18.666016      1.442808      -1.9055953      17773.072    
    215000   0.90237026     0.0023323615   0.00070601301  19.852132      18.512112      1.3400198     -1.9794017      17784.08     
    216000   1.0192693      0.0023323615   0.0012417908   19.733747      18.220132      1.5136149     -2.2121058      17681.33     
    217000   0.8688089      0.0023323615   0.0028242788   19.449659      18.159478      1.2901812     -2.2656399      17748.658    
    218000   0.89576893     0.0023323615  -0.00027709618  19.717196      18.386979      1.3302169     -2.1681619      17600.783    
    219000   0.86588667     0.0023323615   0.0044029517   19.932262      18.64642       1.2858417     -1.8541841      17706.929    
    220000   0.88371605     0.0023323615   0.0012335404   19.704878      18.39256       1.3123183     -2.1934037      17674.621    
    221000   0.99442691     0.0023323615   0.0031203088   20.082118      18.605394      1.476724      -1.9702435      17714.666    
    222000   1.1337611      0.0023323615  -0.0017186735   20.41408       18.730445      1.6836353     -1.7856575      17653.533    
    223000   0.84831783     0.0023323615   0.00047181997  19.813426      18.553674      1.259752      -1.9170081      17804.179    
    224000   1.0483769      0.0023323615  -0.0027763986   20.233668      18.676829      1.5568398     -1.9203439      17966.708    
    225000   0.98895857     0.0023323615   0.0070371821   20.059752      18.591148      1.4686035     -1.9285028      17795.64     
    226000   1.072047       0.0023323615   0.0034766096   19.728732      18.136742      1.5919899     -2.4125036      17727.729    
    227000   0.97965293     0.0023323615   0.00098090054  20.114875      18.66009       1.4547846     -1.9601635      17693.216    
    228000   1.0806111      0.0023323615   0.0027734812   20.054392      18.449684      1.6047075     -2.1468137      17882.706    
    229000   0.76986484     0.0023323615  -0.0042634154   19.740736      18.597487      1.1432493     -2.0027289      17908.339    
    230000   0.81338825     0.0023323615   0.0051935596   19.8518        18.643918      1.2078816     -2.0225564      17722.325    
    231000   0.93451594     0.0023323615   0.0020679681   19.844092      18.456336      1.3877562     -1.930327       17651.535    
    232000   1.1066836      0.0023323615   0.001908297    19.998026      18.354601      1.6434251     -2.1031014      17728.211    
    233000   0.91479846     0.0023323615  -0.0011616984   20.085573      18.727097      1.3584757     -1.8613267      17682.292    
    234000   1.0556791      0.0023323615   0.0023159539   19.986468      18.418785      1.5676834     -2.0425935      17621.963    
    235000   1.1682305      0.0023323615  -0.00061333314  20.194506      18.459684      1.7348223     -2.0645843      17736.695    
    236000   1.0169624      0.0023323615   0.0031565256   19.728758      18.218569      1.5101891     -2.2771347      17646.317    
    237000   1.1632226      0.0023323615   0.00023592543  20.270886      18.543501      1.7273856     -2.021088       17558.063    
    238000   1.0657551      0.0023323615   0.0011168996   20.167979      18.585333      1.5826463     -1.9072925      17714.506    
    239000   0.75209745     0.0023323615  -0.00046171825  19.732156      18.615292      1.1168647     -1.9640071      17710.398    
    240000   0.99370122     0.0023323615   0.00016189312  19.957966      18.48232       1.4756463     -1.9856011      17658.808    
    241000   0.91312889     0.0023323615  -0.00078380239  19.809847      18.453851      1.3559964     -2.0345426      17673.832    
    242000   1.0483447      0.0023323615  -0.00075366087  19.987262      18.43047       1.5567918     -2.065928       17601.938    
    243000   0.97700752     0.0023323615   0.00032055065  19.961479      18.510623      1.4508562     -1.9945994      17700.542    
    244000   1.0771599      0.0023323615   0.00015286798  20.150914      18.551331      1.5995824     -1.8885776      17545.591    
    245000   0.92045287     0.0023323615   0.00014138086  19.954787      18.587914      1.3668725     -1.7936444      17607.819    
    246000   0.94282844     0.0023323615   0.0014120846   19.859219      18.459119      1.4001002     -1.9437004      17880.48     
    247000   0.90398001     0.0023323615   0.0045369916   19.779917      18.437507      1.3424103     -2.0966244      17799.432    
    248000   0.96446437     0.0023323615   0.00025427009  20.04855       18.61632       1.4322296     -1.8553885      17814.557    
    249000   1.0496651      0.0023323615   0.0022137179   19.80717       18.248417      1.5587526     -2.2739169      17705.899    
    250000   1.0892017      0.0023323615  -0.0012733956   20.53357       18.916105      1.6174646     -1.7493289      17669.956    
    251000   1.0244993      0.0023323615  -0.004011706    19.952873      18.431492      1.5213815     -2.0703126      17684.3      
    252000   0.94773416     0.0023323615   0.0020262256   20.018519      18.611134      1.4073852     -1.7971724      17878.35     
    253000   0.92130911     0.0023323615   0.00076910884  19.839751      18.471607      1.368144      -1.9595567      17919.112    
    254000   1.1358485      0.0023323615   0.003709715    20.161699      18.474964      1.686735      -2.0195711      17709.66     
    255000   0.90716589     0.0023323615   0.00018200258  19.877662      18.530521      1.3471414     -2.0005607      17694.85     
    256000   0.9033076      0.0023323615  -0.0012962079   20.08071       18.739299      1.3414118     -1.8712158      17831.797    
    257000   0.92197188     0.0023323615   0.00045125521  20.078287      18.709159      1.3691282     -1.8789013      17617.115    
    258000   1.0727336      0.0023323615   0.00090591238  20.26741       18.674401      1.5930094     -1.8606784      17656.646    
    259000   1.1005219      0.0023323615   0.001652828    20.214875      18.5806        1.634275      -1.893831       17668.648    
    260000   1.0744736      0.0023323615   0.0013585581   20.110112      18.514519      1.5955933     -1.8517808      17742.128    
    261000   1.1360667      0.0023323615   0.0033562989   20.276481      18.589422      1.687059      -2.0408426      17827.122    
    262000   1.0350802      0.0023323615  -0.00076721389  20.043039      18.505945      1.5370941     -2.0021247      17783.734    
    263000   0.98828399     0.0023323615  -0.0019012695   20.016742      18.549141      1.4676017     -1.9315981      17935.437    
    264000   0.97653049     0.0023323615   0.00041415676  20.031754      18.581606      1.4501478     -1.9943365      17641.501    
    265000   1.0297364      0.0023323615  -0.0027563886   19.895296      18.366137      1.5291586     -2.0794581      17629.284    
    266000   0.94237543     0.0023323615  -0.0023204284   19.904676      18.505248      1.3994275     -1.985988       17699.309    
    267000   0.99331704     0.0023323615   0.0002138311   20.149074      18.673998      1.4750758     -1.8719004      17675.3      
    268000   1.0624828      0.0023323615   0.0020744061   20.183334      18.605547      1.5777869     -1.9533377      17854.601    
    269000   1.0216404      0.0023323615   0.0010304778   20.013176      18.49604       1.517136      -2.0033319      17905.515    
    270000   0.90522063     0.0023323615  -0.0018139971   19.871812      18.527559      1.3442526     -1.9556576      17870.937    
    271000   0.96993328     0.0023323615  -0.00091381712  19.656248      18.215897      1.4403509     -2.2965921      17902.75     
    272000   1.0718786      0.0023323615  -0.0012837464   19.969576      18.377836      1.5917397     -2.0797022      17914.42     
    273000   1.180145       0.0023323615  -0.0037845038   20.183181      18.430666      1.7525153     -2.1199632      17910.903    
    274000   0.85419288     0.0023323615  -0.00058304267  19.815715      18.547239      1.2684764     -1.9423002      17998.653    
    275000   0.96730965     0.0023323615   0.0041307188   20.031005      18.59455       1.4364548     -1.9366446      17927.542    
    276000   1.0629895      0.0023323615   0.0023622155   19.930542      18.352002      1.5785395     -2.0625824      17869.177    
    277000   0.97702465     0.0023323615   0.0029869828   19.742831      18.29195       1.4508816     -2.1643599      17774.376    
    278000   0.95676499     0.0023323615  -0.00045336365  19.975238      18.554442      1.420796      -1.8738153      17822.516    
    279000   0.97717083     0.0023323615   0.00018994627  20.020372      18.569274      1.4510987     -1.9114254      17857.588    
    280000   1.1539156      0.0023323615  -0.0015586289   20.343955      18.63039       1.7135647     -1.8500902      17969.447    
    281000   0.89595823     0.0023323615  -2.051399e-05   19.920185      18.589687      1.330498      -1.9415696      17899.78     
    282000   0.89174264     0.0023323615   0.0038710683   19.641009      18.316771      1.3242378     -2.1786023      17894.736    
    283000   1.0017903      0.0023323615   0.0038556903   20.033351      18.545693      1.4876586     -2.0002843      17786.716    
    284000   0.94916275     0.0023323615   0.0048159997   19.73339       18.323883      1.4095067     -2.2202085      17711.768    
    285000   1.1672407      0.0023323615  -0.00088872602  20.094427      18.361075      1.7333525     -2.1899748      17678.44     
    286000   1.0405571      0.0023323615   0.00063501249  20.00136       18.456133      1.5452272     -1.991392       17785.303    
    287000   0.9700758      0.0023323615   0.00084098295  19.663167      18.222605      1.4405626     -2.2903284      17569.349    
    288000   1.0897009      0.0023323615  -0.0010243105   20.128515      18.510309      1.6182058     -1.9935344      17583.256    
    289000   0.99944982     0.0023323615   0.0061572404   20.069364      18.585181      1.484183      -2.0399056      17774.088    
    290000   1.0656948      0.0023323615  -0.0020855543   20.063649      18.481092      1.5825568     -1.9814509      17648.039    
    291000   1.0161537      0.0023323615   0.0018844136   20.021593      18.512604      1.5089882     -2.0336467      17829.45     
    292000   0.93969388     0.0023323615  -0.0013125917   19.900932      18.505487      1.3954454     -2.1067601      17759.831    
    293000   0.9966081      0.0023323615  -0.0040492463   20.147849      18.667886      1.479963      -1.9820615      17789.541    
    294000   1.1111798      0.0023323615  -0.0034221041   20.05614       18.406038      1.650102      -2.0795298      17709.304    
    295000   1.0003045      0.0023323615  -0.0006338307   20.162253      18.6768        1.4854522     -1.877938       17793.937    
    296000   0.99046848     0.0023323615  -0.0028503593   20.024739      18.553893      1.4708457     -2.0361955      17730.306    
    297000   1.0426707      0.0023323615  -0.0021994026   19.892694      18.344328      1.548366      -2.1990288      17672.734    
    298000   0.98011762     0.0023323615   0.004302772    20.095762      18.640287      1.4554747     -1.99228        17642.459    
    299000   1.0055937      0.0023323615   0.00024726298  19.857155      18.363849      1.4933067     -2.1624265      17705.019    
    300000   1.1877999      0.0023323615   0.0034437845   20.004638      18.240755      1.7638828     -2.169187       17613.061    
    301000   1.0704784      0.0023323615   0.0038131335   20.043713      18.454053      1.5896604     -2.1192059      17687.845    
    302000   0.93406873     0.0023323615   0.0041865207   19.855997      18.468905      1.3870921     -1.9127168      17753.734    
    303000   1.0578092      0.0023323615   0.0035581159   19.942441      18.371594      1.5708467     -2.1809066      17879.324    
    304000   1.0599361      0.0023323615   0.0027187584   20.279608      18.705603      1.574005      -1.7997103      18006.293    
    305000   0.97234919     0.0023323615   0.0020512342   20.206892      18.762953      1.4439385     -1.6999208      17743.666    
    306000   0.91483013     0.0023323615   0.0001078572   20.207987      18.849465      1.3585227     -1.6744256      17930.392    
    307000   1.0721175      0.0023323615   0.0049310651   19.791298      18.199204      1.5920945     -2.2371949      17867.67     
    308000   0.96685897     0.0023323615  -0.0030921143   20.040398      18.604613      1.4357856     -1.9819993      17860.726    
    309000   0.89258854     0.0023323615   0.00028266278  19.960995      18.635501      1.325494      -1.9952129      17855.729    
    310000   0.93341804     0.0023323615  -0.00053658346  19.948926      18.5628        1.3861258     -1.8461726      17952.302    
    311000   1.0049221      0.0023323615  -0.00042151065  20.07226       18.579951      1.4923094     -1.8915543      17934.625    
    312000   0.97077729     0.0023323615   0.0013678189   19.991973      18.550368      1.4416043     -2.0586849      17765.976    
    313000   1.1100671      0.0023323615  -0.0022387975   19.896633      18.248184      1.6484496     -2.1562998      17842.929    
    314000   0.92007037     0.0023323615   0.0019173073   20.068916      18.702611      1.3663045     -1.917579       17750.312    
    315000   0.97761374     0.0023323615   0.0038401704   20.067151      18.615395      1.4517564     -1.8791309      17822.401    
    316000   0.92124084     0.0023323615  -0.0028327687   19.900034      18.531992      1.3680426     -2.0139917      17781.412    
    317000   1.0916711      0.0023323615  -0.0049309565   20.324307      18.703175      1.6211316     -1.9718246      17860.457    
    318000   0.97390654     0.0023323615  -0.0011296826   19.957154      18.510903      1.4462512     -2.0679521      17773.056    
    319000   1.0908011      0.0023323615  -0.0013705244   19.926636      18.306796      1.6198397     -2.1706398      17720.296    
    320000   0.98170218     0.0023323615  -0.00088874337  19.919344      18.461516      1.4578277     -2.1645962      17963.016    
    321000   1.047541       0.0023323615  -0.0015733338   20.186053      18.630454      1.5555984     -1.8621518      17856.195    
    322000   1.0342443      0.0023323615  -0.0017805093   20.159193      18.62334       1.5358527     -1.859639       17907.526    
    323000   0.97296355     0.0023323615   0.0013917437   19.65912       18.214269      1.4448509     -2.2171513      17653.345    
    324000   0.83573446     0.0023323615  -0.00011911476  19.951472      18.710406      1.2410657     -1.8364024      17812.408    
    325000   1.0880183      0.0023323615   0.0013670206   20.425509      18.809802      1.6157072     -1.7879344      17900.467    
    326000   0.96737491     0.0023323615  -0.0043279807   19.745785      18.309233      1.4365517     -2.1619084      17763.412    
    327000   0.99522757     0.0023323615   0.0032318609   19.845283      18.36737       1.4779129     -2.1009591      17836.906    
    328000   0.90167241     0.0023323615  -0.00095473124  19.988444      18.649461      1.3389835     -1.8918582      17825.25     
    329000   1.1196336      0.0023323615   0.0038083131   20.466175      18.803519      1.6626559     -1.9031672      17849.588    
    330000   1.0622193      0.0023323615  -0.0010334477   20.230432      18.653036      1.5773956     -1.8093122      17974.363    
    331000   1.0518439      0.0023323615  -0.0018165735   20.03544       18.473452      1.5619883     -1.9969822      17854.148    
    332000   0.9736587      0.0023323615   0.0016102978   19.726496      18.280613      1.4458832     -2.3025243      17669.818    
    333000   1.0006218      0.0023323615  -0.0017180856   19.974818      18.488894      1.4859234     -2.0983649      17779.632    
    334000   0.95066186     0.0023323615  -0.001291152    19.978264      18.566531      1.4117329     -1.9964584      17670.831    
    335000   1.1062981      0.0023323615   0.00096543134  20.243833      18.600981      1.6428527     -2.080449       17632.644    
    336000   0.98789249     0.0023323615  -0.0029443678   19.709437      18.242417      1.4670204     -2.1265775      17603.366    
    337000   1.0089904      0.0023323615   7.1742205e-05  20.113867      18.615516      1.4983507     -1.9639497      17575.784    
    338000   1.0156817      0.0023323615  -0.0014304572   19.772093      18.263806      1.5082873     -2.1596122      17515.162    
    339000   1.0537618      0.0023323615  -0.00041081778  19.862843      18.298007      1.5648362     -2.205268       17542.158    
    340000   0.92196944     0.0023323615   0.0002745846   19.515058      18.145934      1.3691246     -2.2552922      17908.326    
    341000   0.9657574      0.0023323615  -0.0010638613   19.91086       18.47671       1.4341497     -1.9623345      17996.306    
    342000   0.96570158     0.0023323615  -0.0010550914   19.839463      18.405396      1.4340668     -2.0127639      17987.498    
    343000   1.0205822      0.0023323615  -0.0013195072   19.886991      18.371427      1.5155645     -2.0768325      17840.709    
    344000   1.0590555      0.0023323615  -0.0017305953   20.208803      18.636106      1.5726974     -1.9003608      17929.954    
    345000   1.0513186      0.0023323615  -0.0025877211   19.809328      18.24812       1.5612082     -2.1368938      17841.146    
    346000   0.96266848     0.0023323615   0.0027136336   19.763693      18.33413       1.4295627     -2.0713388      17948.912    
    347000   0.99921884     0.0023323615  -0.0029646923   20.090923      18.607083      1.48384       -1.9425729      17981.419    
    348000   1.0170688      0.0023323615   0.0012495415   20.031325      18.520978      1.5103472     -1.9366587      17903.421    
    349000   1.133713       0.0023323615  -0.00085104276  20.26198       18.578417      1.6835638     -1.9066648      17916.022    
    350000   0.97533419     0.0023323615  -0.0062352838   20.028374      18.580003      1.4483713     -1.9296829      17944.947    
    351000   0.92718058     0.0023323615  -0.00042864616  19.667951      18.291088      1.3768632     -2.2935859      17803.883    
    352000   0.97151857     0.0023323615   0.0035801518   20.141254      18.698549      1.4427051     -1.8658017      17922.443    
    353000   1.0513574      0.0023323615   0.00010025653  19.807812      18.246546      1.5612658     -2.2081401      17809.535    
    354000   0.93145687     0.0023323615  -0.00053322947  19.820008      18.436795      1.3832134     -2.0389007      17756.103    
    355000   0.99319558     0.0023323615  -0.002112401    20.064799      18.589904      1.4748954     -1.9862868      17870.895    
    356000   1.0340481      0.0023323615   0.0036369725   19.906263      18.370701      1.5355614     -2.1342776      17861.432    
    357000   1.0383858      0.0023323615   0.0029659407   20.184004      18.642001      1.5420029     -1.7682942      17964.962    
    358000   1.0336361      0.0023323615   0.00029844942  19.850442      18.315493      1.5349495     -2.0910323      18014.788    
    359000   0.91813859     0.0023323615  -0.0014206914   19.697273      18.333837      1.3634358     -2.189893       17864.287    
    360000   1.0275294      0.0023323615   0.0045534258   20.135594      18.609713      1.5258811     -1.8909129      17880.153    
    361000   1.0804035      0.0023323615  -0.005748575    20.303232      18.698833      1.6043993     -1.9747242      17863.471    
    362000   0.9810824      0.0023323615  -0.0023637321   19.783033      18.326126      1.4569074     -2.1138067      17867.977    
    363000   1.0263886      0.0023323615   0.0021608356   19.944277      18.42009       1.5241871     -1.9763785      17992.388    
    364000   1.0603903      0.0023323615   0.0011335116   20.170746      18.596067      1.5746796     -1.9177         17914.295    
    365000   1.0128668      0.0023323615   7.770127e-05   20.155752      18.651645      1.5041072     -1.8476076      18059.394    
    366000   0.8577101      0.0023323615  -0.00063247649  19.705982      18.432283      1.2736995     -2.066157       18179.865    
    367000   0.86400936     0.0023323615   0.0003309478   19.812472      18.529418      1.2830539     -2.0711426      17970.15     
    368000   0.90636014     0.0023323615   8.0879479e-05  19.907768      18.561823      1.3459448     -2.1015337      17851.293    
    369000   0.95260456     0.0023323615  -0.0025635927   19.829541      18.414923      1.4146178     -2.221571       17969.726    
    370000   1.0513393      0.0023323615   0.00072492171  20.181977      18.620738      1.5612389     -2.0108733      18009.022    
    371000   0.93149059     0.0023323615   0.0015874767   20.078206      18.694942      1.3832635     -2.0133542      18127.945    
    372000   0.96838938     0.0023323615   0.0025839152   20.137595      18.699537      1.4380582     -1.7635466      18007.43     
    373000   1.0155409      0.0023323615  -0.00041331794  20.039176      18.531098      1.5080783     -1.9909311      17960.197    
    374000   0.9372673      0.0023323615  -0.0016027277   19.961698      18.569856      1.3918419     -1.9338221      17808.886    
    375000   0.79523316     0.0023323615   0.0022885323   19.865222      18.684301      1.1809212     -1.8511638      17962.405    
    376000   1.0425109      0.0023323615  -0.00074762838  19.817832      18.269704      1.5481287     -2.1544249      17947.808    
    377000   0.86759333     0.0023323615  -0.0022053525   19.749319      18.460943      1.2883761     -1.9951945      17890.575    
    378000   0.78255347     0.0023323615  -0.0036682124   19.830799      18.668707      1.1620919     -1.8957071      18111.382    
    379000   0.8976912      0.0023323615   0.0014638787   19.804946      18.471874      1.3330714     -2.1969255      18084.962    
    380000   1.0533746      0.0023323615   0.00041255966  19.840408      18.276147      1.5642612     -2.1618094      17881.182    
    381000   0.99757643     0.0023323615  -0.0015277679   20.048627      18.567226      1.481401      -2.0772712      17811.985    
    382000   0.93667104     0.0023323615  -0.0015952273   20.057722      18.666765      1.3909565     -2.0833436      17839.813    
    383000   1.0092444      0.0023323615   0.0041783516   19.97238       18.473652      1.4987279     -2.0895729      17867.955    
    384000   1.0034201      0.0023323615   0.00010098334  19.864127      18.374048      1.4900789     -2.1319189      17940.799    
    385000   1.0329704      0.0023323615   0.0047244402   20.153837      18.619876      1.5339611     -1.9492184      17843.062    
    386000   0.93568899     0.0023323615  -0.0030444809   20.043476      18.653978      1.3894981     -1.8984184      17830.154    
    387000   1.1672634      0.0023323615  -0.0061318139   20.507807      18.774421      1.7333862     -1.7827354      18034.412    
    388000   0.93564143     0.0023323615  -0.0030916258   19.894277      18.504849      1.3894275     -1.955889       18027.162    
    389000   1.0631514      0.0023323615   0.00044746842  20.302882      18.724102      1.5787798     -1.8642314      17958.103    
    390000   1.0196255      0.0023323615  -0.0025443453   20.005995      18.491851      1.5141438     -2.0979613      17976.166    
    391000   0.89712918     0.0023323615   0.0027080596   19.792183      18.459947      1.3322368     -2.0137815      17861.48     
    392000   0.92297065     0.0023323615  -0.0026431027   19.842406      18.471794      1.3706114     -1.9414522      18000.746    
    393000   1.0578041      0.0023323615  -0.0025851684   19.915641      18.344802      1.570839      -2.2684262      17920.753    
    394000   1.0137084      0.0023323615  -0.0062121147   20.247082      18.741725      1.505357      -1.8169733      17912.829    
    395000   0.96050545     0.0023323615  -0.0016828164   19.707131      18.28078       1.4263506     -2.125389       18025.654    
    396000   0.90763081     0.0023323615  -0.0060578341   19.704973      18.357141      1.3478318     -2.1731546      18061.106    
    397000   1.0114406      0.0023323615   0.00094752788  20.54791       19.045921      1.5019893     -1.6022373      18232.138    
    398000   1.028821       0.0023323615  -0.0031310271   20.162044      18.634244      1.5277992     -1.8907696      18075        
    399000   1.1074397      0.0023323615  -0.0014287102   20.119044      18.474496      1.6445479     -1.9733427      18071.056    
    400000   1.1000498      0.0023323615   0.0014374701   19.895667      18.262093      1.633574      -2.2185043      18149.578    
    401000   0.8778769      0.0023323615  -0.0029903832   20.062417      18.75877       1.3036472     -1.7720842      18048.578    
    402000   0.885117       0.0023323615  -0.00083277734  19.853468      18.53907       1.3143988     -2.0113863      18156.538    
    403000   0.92916533     0.0023323615   0.00098930643  19.624533      18.244723      1.3798105     -2.201857       18045.087    
    404000   1.0843019      0.0023323615   0.00088891991  20.214297      18.604109      1.6101883     -1.9404934      17975.742    
    405000   0.94324641     0.0023323615  -0.002400445    20.081474      18.680753      1.4007209     -1.843714       17987.284    
    406000   1.0854732      0.0023323615  -0.0039092395   20.157459      18.545532      1.6119277     -2.0725324      17984.559    
    407000   0.99171815     0.0023323615  -0.0020299525   20.07999       18.607289      1.4727015     -1.9783123      17887.013    
    408000   0.91311903     0.0023323615  -0.00014840467  19.92387       18.567889      1.3559818     -1.9836926      17938.912    
    409000   1.09545        0.0023323615  -0.0020992047   20.269432      18.642689      1.6267433     -1.9014967      18086.578    
    410000   1.0163855      0.0023323615  -0.00068441363  20.113195      18.603862      1.5093325     -1.9830944      18009.909    
[...]
    861000   1.0123256      0.0023323615  -0.003084655    19.867257      18.363953      1.5033034     -2.2714787      17793.832    
    862000   0.97729319     0.0023323615   0.00015776342  20.173361      18.722081      1.4512804     -1.8404776      17746.316    
    863000   1.0290929      0.0023323615  -4.8370965e-05  19.813551      18.285348      1.5282029     -2.188134       18030.962    
    864000   1.0636875      0.0023323615  -0.0010915935   20.131054      18.551478      1.5795759     -2.0976908      17948.222    
    865000   0.8707863      0.0023323615   0.0022308915   19.662613      18.369495      1.2931177     -2.1432161      17930.16     
    866000   1.0662707      0.0023323615   0.0015929591   20.162429      18.579017      1.583412      -1.81177        17959.444    
    867000   1.0180543      0.0023323615   0.0026707576   19.919003      18.407192      1.5118106     -2.0923904      17906.996    
    868000   0.98509316     0.0023323615  -0.00064177688  19.84536       18.382496      1.4628633     -2.0993616      17891.807    
    869000   1.0877119      0.0023323615  -0.0054306565   20.501224      18.885972      1.6152522     -1.6996693      17947.089    
    870000   0.96932175     0.0023323615  -0.0021989028   19.953186      18.513743      1.4394428     -1.9453998      17867.168    
    871000   0.99741137     0.0023323615   0.0013107299   20.000369      18.519213      1.4811559     -1.8690243      17812.491    
    872000   1.0825365      0.0023323615  -0.0012323013   19.936826      18.329259      1.6075667     -2.3064629      17953.332    
    873000   0.97905204     0.0023323615   0.0037672076   19.768371      18.314479      1.4538923     -2.2129038      17860.547    
    874000   1.069761       0.0023323615   0.00065975962  20.122215      18.53362       1.588595      -2.0381354      17925.735    
    875000   1.1099643      0.0023323615   0.0017054664   20.267378      18.619081      1.6482969     -1.9602868      18015.786    
    876000   0.91560341     0.0023323615  -0.0047860665   20.295083      18.935412      1.3596711     -1.7977135      17845.13     
    877000   1.0249995      0.0023323615   0.0025561115   19.814149      18.292025      1.5221243     -2.1591018      18045.707    
    878000   0.9188082      0.0023323615  -0.00072867279  19.773379      18.408948      1.3644302     -2.1005482      18268.023    
    879000   1.0697522      0.0023323615  -0.0027405108   20.240255      18.651673      1.5885821     -1.9469829      18141.117    
    880000   1.0236874      0.0023323615  -0.00073594346  20.265789      18.745613      1.5201758     -1.8271474      18133.342    
    881000   0.88651455     0.0023323615  -0.0024932975   19.863013      18.546539      1.3164741     -1.9410204      18029.897    
    882000   0.98230136     0.0023323615  -0.0014428001   19.757469      18.298752      1.4587175     -2.2700369      18079.485    
    883000   1.1743045      0.0023323615  -0.00060206039  19.967495      18.223653      1.7438422     -2.2227791      18009.61     
    884000   1.0177966      0.0023323615   0.0034115636   20.116111      18.604683      1.511428      -2.0178607      17988.078    
    885000   1.1062316      0.0023323615   0.00013335446  20.176775      18.534021      1.642754      -1.9612608      18091.181    
    886000   1.0523903      0.0023323615   0.0042759157   20.092157      18.529357      1.5627996     -1.9363406      17986.039    
    887000   1.0304847      0.0023323615  -0.0015512413   20.12876       18.59849       1.5302698     -1.9018289      18078.634    
    888000   0.80934655     0.0023323615   0.00083323037  19.791339      18.589459      1.2018796     -1.9534319      18191.764    
    889000   0.82870258     0.0023323615   0.0032710374   19.650875      18.420251      1.2306233     -2.0443081      18070.971    
    890000   1.0546713      0.0023323615   0.0016876438   20.020722      18.454535      1.5661869     -1.9942753      17859.789    
    891000   1.037267       0.0023323615   0.00098460149  19.962801      18.422459      1.5403414     -2.0572167      17723.921    
    892000   1.1114787      0.0023323615   0.0015610209   20.285215      18.634669      1.6505458     -1.9069311      17700.636    
    893000   1.0597207      0.0023323615  -0.00081765743  19.974584      18.400899      1.5736853     -2.0308166      17808.613    
    894000   1.0335939      0.0023323615  -0.0059617119   20.081922      18.547035      1.5348869     -1.9342599      17709.317    
    895000   1.0065173      0.0023323615  -0.0041050562   19.784882      18.290204      1.4946781     -2.1480204      17588.166    
    896000   0.97703918     0.0023323615   0.00067856813  19.564005      18.113102      1.4509032     -2.2761458      17566.663    
    897000   0.97916056     0.0023323615   0.00061479763  19.936776      18.482723      1.4540534     -1.9806978      17614.422    
    898000   1.0270332      0.0023323615  -0.0040163961   19.823848      18.298703      1.5251443     -2.1414023      17699.045    
    899000   1.0224852      0.0023323615  -0.00074088692  19.807062      18.288671      1.5183905     -2.2654111      17624.882    
    900000   1.0152595      0.0023323615  -0.0026916283   20.113314      18.605654      1.5076603     -2.0657999      17459.495    
    901000   1.2819623      0.0023323615  -0.0021368778   20.531379      18.627665      1.903714      -1.8743383      17674.158    
    902000   0.93424919     0.0023323615  -0.0065980111   20.096889      18.709529      1.3873601     -1.9170041      17796.408    
    903000   0.93420054     0.0023323615  -7.7289809e-05  19.760214      18.372927      1.3872878     -2.0831908      17676.578    
    904000   1.0763291      0.0023323615  -0.00010541704  20.343744      18.745395      1.5983487     -1.735255       17815.432    
    905000   1.0197928      0.0023323615   0.0038660759   20.37034       18.855948      1.5143923     -1.812203       17912.414    
    906000   0.95543591     0.0023323615  -0.0026000565   19.960792      18.54197       1.4188223     -1.99841        17621.13     
    907000   1.01681        0.0023323615   0.002020831    19.945009      18.435046      1.5099629     -2.0994363      17821.027    
    908000   1.1060642      0.0023323615   0.0033201648   19.932333      18.289828      1.6425053     -2.2507753      17918.048    
    909000   1.0160186      0.0023323615  -0.0031978555   19.858303      18.349515      1.5087877     -2.1164157      17796.665    
    910000   1.0570135      0.0023323615  -0.0041551565   19.878853      18.309188      1.569665      -2.2882275      17932.331    
    911000   0.99010168     0.0023323615   0.00036563507  20.074594      18.604293      1.470301      -1.9730381      17904.963    
    912000   1.1664185      0.0023323615   0.0021902534   20.104599      18.372467      1.7321315     -2.0782112      17911.186    
    913000   0.91549011     0.0023323615   0.00027420143  20.089645      18.730142      1.3595028     -1.8343554      17917.7      
    914000   1.047238       0.0023323615   0.0019579606   20.176072      18.620924      1.5551484     -1.9842816      17823.108    
    915000   1.1474269      0.0023323615   0.001129183    20.168064      18.464135      1.7039289     -1.9381387      18015.146    
    916000   0.98145119     0.0023323615  -0.0011239001   19.896758      18.439303      1.457455      -1.9740579      17839.284    
    917000   0.94815719     0.0023323615  -1.1009614e-05  19.717405      18.309391      1.4080134     -2.2321245      17900.608    
    918000   1.0554368      0.0023323615   0.00010395109  19.861274      18.293951      1.5673237     -2.2543056      17845.369    
    919000   0.9538894      0.0023323615  -0.0029116369   19.795418      18.378893      1.4165258     -2.0706802      17868.217    
    920000   1.0633633      0.0023323615  -6.9974305e-05  20.06415       18.485055      1.5790946     -1.9438466      17974.221    
    921000   0.95136434     0.0023323615   0.0016299221   19.898089      18.485313      1.412776      -2.2440609      17858.322    
    922000   0.95358298     0.0023323615   0.00047835467  20.003507      18.587436      1.4160707     -1.9275379      17876.006    
    923000   1.1294443      0.0023323615  -0.00068394967  19.945737      18.268513      1.6772248     -2.2341465      17775.091    
    924000   1.0419525      0.0023323615   0.0014055965   19.903544      18.356245      1.5472995     -2.1731172      17685.303    
    925000   1.0803854      0.0023323615   0.0014867788   20.142606      18.538234      1.6043722     -1.9448123      17813.041    
    926000   1.0721858      0.0023323615   0.00062395293  20.235877      18.643681      1.5921959     -1.9495579      17940.957    
    927000   0.98563605     0.0023323615   0.0059475309   19.990885      18.527216      1.4636695     -1.971208       17940.157    
    928000   1.0336118      0.0023323615  -1.9775376e-05  20.113822      18.578909      1.5349136     -1.8981603      17845.379    
    929000   1.1936515      0.0023323615   3.7232233e-05  20.419471      18.646898      1.7725725     -1.7587826      18039.406    
    930000   1.0147418      0.0023323615   0.0030334438   19.693463      18.186572      1.5068916     -2.1769253      17933.352    
    931000   0.98979728     0.0023323615   0.0023131981   20.230636      18.760787      1.469849      -1.9059971      17897.078    
    932000   0.91908949     0.0023323615  -0.00012935051  19.847599      18.482752      1.3648479     -2.0558565      17917.762    
    933000   1.0233496      0.0023323615  -0.0026814269   20.199924      18.68025       1.5196742     -1.8949164      17966.136    
    934000   1.0638775      0.0023323615   0.0011492524   20.152609      18.57275       1.5798581     -1.9817474      17892.317    
    935000   0.99273951     0.0023323615   0.003593459    20.010847      18.536629      1.4742182     -1.9234554      17965.414    
    936000   1.1510562      0.0023323615   0.0036289281   20.189359      18.48004       1.7093185     -2.0206484      17809.455    
    937000   1.0801639      0.0023323615  -0.000613997    20.105404      18.50136       1.6040433     -1.9814113      17815.514    
    938000   1.0465741      0.0023323615   0.00078278376  19.951431      18.397268      1.5541626     -2.1373694      17983.839    
    939000   0.9838237      0.0023323615   0.0047946955   19.983322      18.522344      1.4609782     -2.0009575      17902.705    
    940000   1.0086936      0.0023323615  -0.0053285566   20.051729      18.553819      1.4979099     -2.0515315      17884.741    
    941000   0.94660962     0.0023323615  -0.0060680435   20.160943      18.755227      1.4057153     -1.854753       17990.481    
    942000   1.0726027      0.0023323615   0.0046145625   20.378077      18.785263      1.592815      -1.7871416      17862.595    
    943000   0.97243532     0.0023323615   0.0011070767   19.95156       18.507494      1.4440665     -2.0116939      17908.342    
    944000   0.98839162     0.0023323615  -0.00041517101  20.056027      18.588265      1.4677616     -1.9209551      18021.326    
    945000   0.97153759     0.0023323615  -0.0022415859   20.053221      18.610487      1.4427333     -1.8568171      18148.499    
    946000   0.98296346     0.0023323615   0.0024397694   20.035762      18.576061      1.4597007     -1.9713589      18008.785    
    947000   0.97747643     0.0023323615   0.0046827188   19.991373      18.539821      1.4515525     -1.9851489      18054.752    
    948000   1.0031624      0.0023323615   0.0043887152   20.056841      18.567144      1.4896962     -2.0429645      18099.776    
    949000   1.2148586      0.0023323615  -0.0031409518   20.487631      18.683566      1.804065      -1.7750808      17958.184    
    950000   0.84826528     0.0023323615   0.00092121539  19.833255      18.573581      1.2596739     -1.9331112      17927.194    
    951000   1.1154473      0.0023323615   0.0035677281   20.109774      18.453334      1.6564392     -2.0371443      17919.438    
    952000   1.0322427      0.0023323615  -0.0020589498   19.956971      18.424091      1.5328804     -2.0219136      17834.455    
    953000   0.99108748     0.0023323615   0.00039829057  20.205037      18.733272      1.4717649     -1.7900166      17828.224    
    954000   0.94336015     0.0023323615  -0.00028729721  19.703926      18.303036      1.4008898     -2.093623       18056.8      
    955000   1.1416807      0.0023323615  -0.0052852368   19.899069      18.203673      1.6953958     -2.2125002      17988.179    
    956000   0.85195809     0.0023323615  -0.0048639701   19.777011      18.511853      1.2651578     -2.0968881      17943.024    
    957000   1.0125588      0.0023323615  -0.0019786363   19.695999      18.192349      1.5036498     -2.1465371      17940.566    
    958000   1.0043024      0.0023323615   0.0014553469   20.069272      18.577883      1.491389      -1.9432787      17807.682    
    959000   1.0137085      0.0023323615  -9.7269046e-05  20.076718      18.57136       1.5053571     -2.0017354      17914.736    
    960000   1.0936595      0.0023323615  -0.0028335986   20.107024      18.48294       1.6240844     -2.1195048      17787.299    
    961000   0.78962019     0.0023323615  -0.00055905473  19.783622      18.611036      1.172586      -1.861486       17776.367    
    962000   1.0712806      0.0023323615   0.004757115    20.014831      18.42398       1.5908518     -2.009559       18110.298    
    963000   0.8980942      0.0023323615  -0.0030469564   19.925873      18.592204      1.3336699     -1.8692795      18116.971    
    964000   0.80363084     0.0023323615   0.00013056088  19.995047      18.801655      1.1933918     -1.8220898      17853.451    
    965000   1.0567163      0.0023323615  -0.00035443189  20.090984      18.521761      1.5692237     -2.0270029      17900.83     
    966000   1.0032426      0.0023323615   1.6480082e-05  19.733505      18.24369       1.4898153     -2.2374399      17916.607    
    967000   0.93513851     0.0023323615  -0.0042553038   20.001442      18.612761      1.3886807     -1.9125662      17886.151    
    968000   1.1008503      0.0023323615  -0.0019387079   20.006972      18.372209      1.6347627     -2.0415971      17858.757    
    969000   0.99128335     0.0023323615  -0.0017292213   20.031486      18.55943       1.4720558     -2.0071467      17988.853    
    970000   0.98463837     0.0023323615  -0.0026009477   19.871119      18.408931      1.462188      -2.103213       17990.458    
    971000   1.0765735      0.0023323615   0.002532512    19.992044      18.393332      1.5987116     -2.0820091      17813.568    
    972000   1.0457057      0.0023323615  -0.0010352048   19.998734      18.445861      1.5528729     -2.0254345      17883.142    
    973000   0.88720811     0.0023323615   0.00077121897  19.72838       18.410876      1.317504      -2.1635222      17850.702    
    974000   1.1078252      0.0023323615   0.00014917072  20.011831      18.366711      1.6451204     -2.1146059      17840.081    
    975000   1.0656469      0.0023323615  -0.0027650758   20.201153      18.618668      1.5824857     -1.9754872      17809.802    
    976000   0.85523376     0.0023323615  -0.0013667873   19.821445      18.551423      1.2700221     -1.9086506      17971.68     
    977000   0.99441711     0.0023323615  -0.0031127137   19.965741      18.489032      1.4767094     -1.939265       17902.015    
    978000   0.98934641     0.0023323615   0.0011777443   20.059136      18.589957      1.4691794     -1.8937033      17952.641    
    979000   0.94567341     0.0023323615  -0.0023509094   19.963746      18.559421      1.404325      -2.0736212      17729.663    
    980000   0.9991708      0.0023323615   0.0017551725   19.949636      18.465867      1.4837686     -2.1268044      17837.406    
    981000   1.018122       0.0023323615  -0.0027985973   20.103672      18.59176       1.5119112     -1.9646851      17952.567    
    982000   0.9996001      0.0023323615  -0.0028014241   19.905488      18.421082      1.4844061     -2.0761337      17929.342    
    983000   1.0219543      0.0023323615  -0.00014252567  19.976872      18.45927       1.5176021     -2.152034       17850.357    
    984000   1.0430988      0.0023323615   0.0010568202   20.26333       18.714328      1.5490017     -1.7991168      17921.036    
    985000   1.0730848      0.0023323615   0.0037795703   20.342925      18.749394      1.593531      -1.8443754      17997.598    
    986000   0.8919109      0.0023323615   0.0012590997   19.662615      18.338127      1.3244877     -2.0880712      17787.474    
    987000   1.049301       0.0023323615   0.00081383635  19.947118      18.388906      1.558212      -2.0875414      17597.857    
    988000   0.96717508     0.0023323615   0.0024823522   19.658633      18.222378      1.436255      -2.294222       17683.78     
    989000   1.0284408      0.0023323615  -0.00012404145  20.183541      18.656307      1.5272346     -1.7618233      17671.445    
    990000   0.9537047      0.0023323615   0.00018795575  19.829209      18.412958      1.4162515     -2.0548911      17883.501    
    991000   1.0610969      0.0023323615  -0.0018318222   20.041487      18.465758      1.5757288     -1.9930512      17745.089    
    992000   1.146508       0.0023323615  -0.002440388    20.129191      18.426627      1.7025644     -2.0863737      17818.587    
    993000   0.93298287     0.0023323615  -0.0012606344   19.745999      18.360519      1.3854796     -2.3065429      17913.353    
    994000   0.95781173     0.0023323615  -0.0033859567   19.900752      18.478401      1.4223504     -2.0358001      17912.208    
    995000   1.0299797      0.0023323615  -0.00028777782  19.816758      18.287238      1.5295198     -2.1982422      17896.33     
    996000   0.98160723     0.0023323615  -0.0019406789   19.980671      18.522984      1.4576867     -2.0180689      17911.051    
    997000   0.98530741     0.0023323615  -0.0064943514   20.146823      18.683641      1.4631815     -1.889637       17970.855    
    998000   0.97233345     0.0023323615   0.00072906997  20.111572      18.667657      1.4439152     -1.9860658      18003.331    
    999000   0.94682318     0.0023323615   0.00073679775  19.742459      18.336427      1.4060324     -2.1324184      17979.407    
   1000000   0.93474377     0.0023323615  -0.0035673744   20.000553      18.612459      1.3880945     -1.9298376      17900.05     
Loop time of 55.9622 on 1 procs for 1000000 steps with 100 atoms

Performance: 7719490.737 tau/day, 17869.192 timesteps/s
99.4% CPU use with 1 MPI tasks x 1 OpenMP threads

MPI task timing breakdown:
Section |  min time  |  avg time  |  max time  |%varavg| %total
---------------------------------------------------------------
Pair    | 46.893     | 46.893     | 46.893     |   0.0 | 83.79
Bond    | 1.2603     | 1.2603     | 1.2603     |   0.0 |  2.25
Neigh   | 3.7823     | 3.7823     | 3.7823     |   0.0 |  6.76
Comm    | 1.5151     | 1.5151     | 1.5151     |   0.0 |  2.71
Output  | 0.21572    | 0.21572    | 0.21572    |   0.0 |  0.39
Modify  | 1.9438     | 1.9438     | 1.9438     |   0.0 |  3.47
Other   |            | 0.3522     |            |       |  0.63

Nlocal:            100 ave         100 max         100 min
Histogram: 1 0 0 0 0 0 0 0 0 0
Nghost:            292 ave         292 max         292 min
Histogram: 1 0 0 0 0 0 0 0 0 0
Neighs:           4851 ave        4851 max        4851 min
Histogram: 1 0 0 0 0 0 0 0 0 0

Total # of neighbors = 4851
Ave neighs/atom = 48.51
Ave special neighs/atom = 1.98
Neighbor list builds = 97774
Dangerous builds = 79128

write_data      ${outputfile_assembled} nofix nocoeff
write_data      7_assembled.data nofix nocoeff
System init for write_data ...
Generated 0 of 6 mixed pair_coeff terms from geometric mixing rule

Total wall time: 0:00:57
