LAMMPS (23 Jun 2022 - Update 1)
OMP_NUM_THREADS environment is not set. Defaulting to 1 thread. (src/comm.cpp:98)
  using 1 OpenMP thread(s) per MPI task


variable        runtime equal 1000000
variable		subsample_rate equal 1000

variable		outputfile_created string '3_created.data'
variable		outputfile_relaxed string '5_relaxed.data'
variable		outputfile_selfasb string '6_a_self_assemble.lammpstrj'
variable		outputfile_trajlin string '6_b_trajlin.data'
variable		outputfile_assembled string '7_assembled.data'

units           lj
atom_style      full
dimension       3
boundary        p p p
timestep        0.005

read_data       ${outputfile_created}
read_data       3_created.data
Reading data file ...
  orthogonal box = (0 0 0) to (35 35 35)
  1 by 1 by 1 MPI processor grid
  reading atoms ...
  100 atoms
  reading velocities ...
  100 velocities
  scanning bonds ...
  1 = max bonds/atom
  reading bonds ...
  99 bonds
Finding 1-2 1-3 1-4 neighbors ...
  special bond factors lj:    0        0        0       
  special bond factors coul:  0        0        0       
     2 = max # of 1-2 neighbors
     2 = max # of 1-3 neighbors
     4 = max # of 1-4 neighbors
     6 = max # of special neighbors
  special bonds CPU = 0.000 seconds
  read_data CPU = 0.005 seconds

bond_style      fene
bond_coeff      * 30.0 1.5 1.0 1.0
special_bonds   fene
Finding 1-2 1-3 1-4 neighbors ...
  special bond factors lj:    0        1        1       
  special bond factors coul:  0        1        1       
     2 = max # of 1-2 neighbors
     6 = max # of special neighbors
  special bonds CPU = 0.000 seconds

variable        Temp equal 1.0
variable        velSeed equal 926458

velocity        all create ${Temp} ${velSeed}
velocity        all create 1 ${velSeed}
velocity        all create 1 926458

### Output
thermo_style    custom step temp density press etotal pe ke epair spcpu
thermo          1000

###########################################################################
# Soft relaxation (to remove overlaps of particles)
######################################################################

pair_style      soft 1.0
pair_coeff      * * 0.0
variable        prefactor equal ramp(0,300)
fix             rampSoft all adapt 1 pair soft a * * v_prefactor

minimize        0.0 1.0e-8 1000 100000
WARNING: Using 'neigh_modify every 1 delay 0 check yes' setting during minimization (src/min.cpp:187)
Generated 0 of 6 mixed pair_coeff terms from geometric mixing rule
Neighbor list info ...
  update every 1 steps, delay 0 steps, check yes
  max neighbors/atom: 2000, page size: 100000
  master list distance cutoff = 1.3
  ghost atom cutoff = 1.3
  binsize = 0.65, bins = 54 54 54
  1 neighbor lists, perpetual/occasional/extra = 1 0 0
  (1) pair soft, perpetual
      attributes: half, newton on
      pair build: half/bin/newton
      stencil: half/bin/3d
      bin: standard
WARNING: Communication cutoff 1.3 is shorter than a bond length based estimate of 1.7550000000000001. This may lead to errors. (src/comm.cpp:727)
Per MPI rank memory allocation (min/avg/max) = 8.346 | 8.346 | 8.346 Mbytes
   Step          Temp         Density         Press          TotEng         PotEng         KinEng         E_pair         S/CPU     
         0   1              0.0023323615  -0.0039617958   21.524174      20.039174      1.485          0              0            
       362   1              0.0023323615   0.0023090379   21.485548      20.000548      1.485          0              70507.467    
Loop time of 0.00513649 on 1 procs for 362 steps with 100 atoms

98.9% CPU use with 1 MPI tasks x 1 OpenMP threads

Minimization stats:
  Stopping criterion = force tolerance
  Energy initial, next-to-last, final = 
      20.0391741078675   20.0005480767337   20.0005480767337
  Force two-norm initial, final = 11.878422 7.9509778e-09
  Force max component initial, final = 6.6117807 1.3572772e-09
  Final line search alpha, max atom move = 1 1.3572772e-09
  Iterations, force evaluations = 362 738

MPI task timing breakdown:
Section |  min time  |  avg time  |  max time  |%varavg| %total
---------------------------------------------------------------
Pair    | 0.00021399 | 0.00021399 | 0.00021399 |   0.0 |  4.17
Bond    | 0.0023293  | 0.0023293  | 0.0023293  |   0.0 | 45.35
Neigh   | 0.0014312  | 0.0014312  | 0.0014312  |   0.0 | 27.86
Comm    | 0.00019256 | 0.00019256 | 0.00019256 |   0.0 |  3.75
Output  | 0          | 0          | 0          |   0.0 |  0.00
Modify  | 0          | 0          | 0          |   0.0 |  0.00
Other   |            | 0.0009694  |            |       | 18.87

Nlocal:            100 ave         100 max         100 min
Histogram: 1 0 0 0 0 0 0 0 0 0
Nghost:             20 ave          20 max          20 min
Histogram: 1 0 0 0 0 0 0 0 0 0
Neighs:              0 ave           0 max           0 min
Histogram: 1 0 0 0 0 0 0 0 0 0

Total # of neighbors = 0
Ave neighs/atom = 0
Ave special neighs/atom = 1.98
Neighbor list builds = 17
Dangerous builds = 0

fix             nvtSoft all nvt temp ${Temp} ${Temp} 0.5
fix             nvtSoft all nvt temp 1 ${Temp} 0.5
fix             nvtSoft all nvt temp 1 1 0.5
run             100000
Generated 0 of 6 mixed pair_coeff terms from geometric mixing rule
WARNING: Communication cutoff 1.3 is shorter than a bond length based estimate of 1.7550000000000001. This may lead to errors. (src/comm.cpp:727)
Per MPI rank memory allocation (min/avg/max) = 7.221 | 7.221 | 7.221 Mbytes
   Step          Temp         Density         Press          TotEng         PotEng         KinEng         E_pair         S/CPU     
       362   1              0.0023323615   0.0023090379   21.485548      20.000548      1.485          0              0            
      1000   0.90989032     0.0023323615  -0.0021940042   21.776974      20.425787      1.3511871      0.00036425437  78763.585    
      2000   0.86546688     0.0023323615   0.0034714157   21.677128      20.39191       1.2852183      0.0025814786   78187.452    
      3000   0.98199538     0.0023323615   0.0028144228   21.866132      20.407869      1.4582631      0.0011756043   73080.125    
      4000   1.004495       0.0023323615  -0.0014058211   21.945624      20.453949      1.4916751      0.011986179    71433.653    
      5000   1.1222705      0.0023323615   0.0044495116   21.986385      20.319813      1.6665718      0.0050317639   73585.277    
      6000   1.0538243      0.0023323615   0.0023957538   21.985713      20.420784      1.564929       0.012100514    74730.289    
      7000   1.0210598      0.0023323615  -0.00038820026  21.904665      20.388391      1.5162738      0              77347.201    
      8000   0.94819751     0.0023323615   0.0024943091   21.747889      20.339816      1.4080733      0              77060.209    
      9000   0.92364502     0.0023323615   0.0020053029   21.724166      20.352554      1.3716129      1.7780894e-05  76300.413    
     10000   0.86685188     0.0023323615   0.00078277366  21.644879      20.357604      1.287275       0.0098636418   76614.979    
     11000   1.0057103      0.0023323615   0.00010113276  21.8558        20.362321      1.4934798      0.020705341    76474.688    
     12000   0.97901664     0.0023323615  -0.0026996968   21.871206      20.417366      1.4538397      0.0052928539   76118.052    
     13000   0.97718436     0.0023323615  -6.1641422e-06  21.963706      20.512587      1.4511188      0.025022446    76158.597    
     14000   1.0530014      0.0023323615  -0.0009993112   21.947994      20.384287      1.5637071      0.0020860456   75095.129    
     15000   0.99094527     0.0023323615   0.0011068478   21.895146      20.423592      1.4715537      0.0015091113   76179.634    
     16000   0.91285091     0.0023323615  -0.00025424173  21.87524       20.519657      1.3555836      0.0047853639   75957.949    
     17000   0.82806978     0.0023323615  -0.00054698156  21.701984      20.472301      1.2296836      0              76226.06     
     18000   1.043278       0.0023323615  -6.6143919e-05  22.003299      20.454031      1.5492679      0.0034319132   76574.604    
     19000   1.0879249      0.0023323615  -0.0017804642   21.998985      20.383416      1.6155685      0.015376175    75569.357    
     20000   1.1144506      0.0023323615   0.0025198298   22.190904      20.535944      1.6549592      0              76449.56     
     21000   1.0427751      0.0023323615   0.0011345349   22.099492      20.550971      1.548521       0.00040047813  76789.982    
     22000   1.0586695      0.0023323615   0.0017882747   22.05673       20.484606      1.5721242      0              76573.894    
     23000   1.0058426      0.0023323615  -0.0055245362   21.954628      20.460951      1.4936763      0.0027619031   75917.157    
     24000   0.98273442     0.0023323615   0.0015147357   21.862067      20.402707      1.4593606      0              76232.586    
     25000   0.95835343     0.0023323615   0.0017808774   21.937761      20.514606      1.4231548      0.00020839942  75855.769    
     26000   0.93993778     0.0023323615  -0.0021777292   21.884849      20.489042      1.3958076      0.0088889834   76417.014    
     27000   0.9308188      0.0023323615  -0.00011239942  21.842252      20.459986      1.3822659      0.021612409    75534.931    
     28000   1.0149581      0.0023323615   0.0041996387   21.906846      20.399633      1.5072129      0.0064059022   76266.022    
     29000   0.92841138     0.0023323615  -2.5398808e-05  21.987185      20.608494      1.3786909      0.0046112484   75750.133    
     30000   1.021043       0.0023323615   0.001589158    22.097958      20.581709      1.5162489      0.016799508    72898.858    
     31000   1.0465985      0.0023323615  -0.0021744286   22.037917      20.483718      1.5541987      0.0057879149   75948.644    
     32000   0.98907108     0.0023323615  -0.0015558606   22.044089      20.575318      1.4687705      0.009448173    75964.539    
     33000   1.0918536      0.0023323615  -0.0025643847   22.039275      20.417873      1.6214025      0              75120.728    
     34000   0.99801543     0.0023323615   0.0016279766   21.932339      20.450286      1.4820529      0.017384617    77425.743    
     35000   1.0352271      0.0023323615  -0.0052971711   22.076004      20.538692      1.5373122      0.00010473809  76246.617    
     36000   1.1141579      0.0023323615  -0.00093279925  22.222491      20.567966      1.6545245      0.00033678641  77217.65     
     37000   1.0369415      0.0023323615   0.00013065175  22.217841      20.677983      1.5398581      0.013788831    76157.141    
     38000   1.0515596      0.0023323615   0.0021717558   22.070766      20.5092        1.561566       0.0067894678   76833.194    
     39000   1.0238495      0.0023323615   0.00026414509  22.040141      20.519725      1.5204165      0.00044464649  75897.935    
     40000   1.0749111      0.0023323615  -0.0026849368   22.039327      20.443084      1.596243       0.012651334    74402.404    
     41000   0.99070886     0.0023323615  -0.0030385564   22.03241       20.561207      1.4712027      0.00092855646  77549.606    
     42000   0.95315224     0.0023323615   0.0019788197   21.965263      20.549832      1.4154311      0.020233689    75948.465    
     43000   1.0644183      0.0023323615  -0.0011168725   22.287172      20.706511      1.5806611      0.039694129    75911.619    
     44000   1.0253747      0.0023323615  -0.006676522    22.066233      20.543552      1.5226814      0              75217.588    
     45000   0.94179556     0.0023323615  -0.0047206018   21.970644      20.572077      1.3985664      0.019869988    75621.634    
     46000   1.0083495      0.0023323615  -0.0017646918   21.972114      20.474715      1.497399       0.00026040605  75621.234    
     47000   0.98767959     0.0023323615  -0.00080218158  22.091674      20.62497       1.4667042      0.024266258    75415.651    
     48000   1.1473449      0.0023323615  -0.0025885687   22.080512      20.376705      1.7038072      0.00065962995  75748.233    
     49000   1.0679312      0.0023323615   0.0017688272   21.970482      20.384604      1.5858779      0.014142422    76657.935    
     50000   0.9581935      0.0023323615   0.0014398836   21.955202      20.532284      1.4229173      0.0055011948   76447.509    
     51000   1.0215759      0.0023323615  -0.00093292688  21.934681      20.41764       1.5170402      0              76124.786    
     52000   0.98079591     0.0023323615   0.0040701936   21.977374      20.520892      1.4564819      0.0020862422   76822.906    
     53000   1.0090927      0.0023323615   0.0013324753   22.095438      20.596935      1.4985027      0              76208.72     
     54000   0.97519627     0.0023323615   0.0013260734   22.070151      20.621984      1.4481665      0.026885444    76974.573    
     55000   1.1805087      0.0023323615  -0.001586238    22.424088      20.671033      1.7530554      0.024690954    76404.198    
     56000   0.98387121     0.0023323615   0.0037155145   22.104425      20.643376      1.4610487      0.01435493     76014.811    
     57000   1.0723812      0.0023323615  -0.0037916262   22.122726      20.53024       1.592486       0.013635549    76536.14     
     58000   1.0152349      0.0023323615   0.00021908047  22.082827      20.575203      1.5076238      0.00077375639  76486.112    
     59000   1.1424502      0.0023323615  -0.0052108657   22.30072       20.604182      1.6965385      0.013308184    77426.768    
     60000   1.0359703      0.0023323615  -0.00097887545  22.188218      20.649802      1.538416       0.00011346294  75791.774    
     61000   1.1646839      0.0023323615  -0.002085017    22.239945      20.51039       1.7295556      0.012918477    78135.615    
     62000   1.101836       0.0023323615   0.0010338878   22.171386      20.53516       1.6362265      0.001396566    76928.77     
     63000   0.96616435     0.0023323615   0.00097550571  21.903821      20.469067      1.4347541      0.013027663    78103.509    
     64000   1.0068907      0.0023323615  -0.0020278726   22.061652      20.566419      1.4952327      0.013750276    76535.32     
     65000   0.98723233     0.0023323615   0.0022441476   22.031073      20.565033      1.46604        0.0066686189   76928        
     66000   1.0273881      0.0023323615  -0.0003515278   22.183579      20.657908      1.5256713      0              75123.674    
     67000   0.96528212     0.0023323615  -0.00014822656  21.9396        20.506156      1.4334439      0.010365557    77059.787    
     68000   1.069702       0.0023323615   9.4754668e-05  22.081119      20.492611      1.5885075      0.00049153926  74428.708    
     69000   1.1229502      0.0023323615   0.0011504079   22.200329      20.532748      1.6675811      0.0068454249   77224.102    
     70000   1.0062775      0.0023323615  -0.00085311964  22.094021      20.599699      1.4943221      0.013222355    75097.39     
     71000   1.0906935      0.0023323615   0.00015260357  22.145362      20.525682      1.6196798      0.018338513    76439.369    
     72000   1.010401       0.0023323615  -6.0487182e-06  22.154105      20.653659      1.5004455      0.0013793953   75071.35     
     73000   1.1177599      0.0023323615  -0.0034084797   22.254435      20.594562      1.6598735      0.00011231735  78020.057    
     74000   0.9768019      0.0023323615   0.00016143893  22.07312       20.622569      1.4505508      0.0084515956   75998.26     
     75000   1.1360996      0.0023323615   0.002159116    22.161595      20.474487      1.6871079      0.0089909162   76541.541    
     76000   0.97379329     0.0023323615  -0.00068458621  21.988928      20.542845      1.446083       0              75850.176    
     77000   0.94876793     0.0023323615  -0.0016073976   21.923496      20.514575      1.4089204      0.017745108    75923.451    
     78000   0.83947996     0.0023323615  -0.00062768559  21.726727      20.480099      1.2466277      0.0054510099   76551.578    
     79000   1.0090614      0.0023323615  -0.00080262643  22.068192      20.569736      1.4984562      0.00023011166  77074.255    
     80000   1.1217643      0.0023323615  -0.0038177864   22.367902      20.702082      1.66582        0.032902439    75994.321    
     81000   1.0240158      0.0023323615   0.00023547123  22.031597      20.510933      1.5206635      0.0068767308   75766.174    
     82000   1.003236       0.0023323615  -0.0022802982   21.894199      20.404393      1.4898055      0.019136282    75084.788    
     83000   1.0554159      0.0023323615   0.004011718    22.104562      20.537269      1.5672927      0.0080869707   74783.369    
     84000   0.83527346     0.0023323615  -0.0034122221   21.874648      20.634267      1.2403811      0.0030083664   75873.818    
     85000   1.036002       0.0023323615   0.0013573923   21.962923      20.42446       1.5384629      0.015709144    76675.427    
     86000   0.9432002      0.0023323615  -0.0032183248   21.913588      20.512936      1.4006523      0.013730309    76567.257    
     87000   0.95566008     0.0023323615  -0.00049614223  21.91653       20.497375      1.4191552      0.0035862035   75739.444    
     88000   0.93373351     0.0023323615  -0.00097093893  21.870485      20.483891      1.3865943      0.0018212145   75235.617    
     89000   0.9684944      0.0023323615  -0.00047342045  21.973429      20.535215      1.4382142      0.00087524744  75595.286    
     90000   0.98293324     0.0023323615  -0.0032204602   22.050919      20.591263      1.4596559      0.015353933    76770.139    
     91000   1.0832827      0.0023323615   0.0048517083   22.11977       20.511095      1.6086749      0.0052867789   77860.36     
     92000   0.85899662     0.0023323615  -0.0013049519   21.765697      20.490087      1.27561        0.0024124001   76759.332    
     93000   0.96176266     0.0023323615  -4.4223672e-05  21.874222      20.446004      1.4282176      0.0045653365   77426.882    
     94000   0.96019503     0.0023323615   0.00024459347  21.944954      20.519064      1.4258896      3.8053462e-05  76914.545    
     95000   0.94702149     0.0023323615  -0.0033658915   21.86315       20.456823      1.4063269      0              77596.146    
     96000   0.91119348     0.0023323615  -0.0013197298   21.825018      20.471896      1.3531223      0.00043282989  76202.32     
     97000   1.0016687      0.0023323615  -0.0019514304   22.013024      20.525546      1.487478       0.0048369955   75713.983    
     98000   1.02143        0.0023323615  -0.0057874974   22.177965      20.661142      1.5168235      0              74663.267    
     99000   1.032786       0.0023323615   0.0018228259   21.975336      20.441649      1.5336871      7.1595851e-05  77673.861    
    100000   1.0594928      0.0023323615   0.0036169719   22.011024      20.437677      1.5733468      0.00032948157  76140.818    
    100362   1.1904942      0.0023323615  -0.00089755607  22.316856      20.548972      1.7678839      0.00063845255  75644.309    
Loop time of 1.31344 on 1 procs for 100000 steps with 100 atoms

Performance: 32890769.603 tau/day, 76136.041 timesteps/s
99.4% CPU use with 1 MPI tasks x 1 OpenMP threads

MPI task timing breakdown:
Section |  min time  |  avg time  |  max time  |%varavg| %total
---------------------------------------------------------------
Pair    | 0.0494     | 0.0494     | 0.0494     |   0.0 |  3.76
Bond    | 0.12594    | 0.12594    | 0.12594    |   0.0 |  9.59
Neigh   | 0.80194    | 0.80194    | 0.80194    |   0.0 | 61.06
Comm    | 0.054053   | 0.054053   | 0.054053   |   0.0 |  4.12
Output  | 0.0011901  | 0.0011901  | 0.0011901  |   0.0 |  0.09
Modify  | 0.24836    | 0.24836    | 0.24836    |   0.0 | 18.91
Other   |            | 0.03255    |            |       |  2.48

Nlocal:            100 ave         100 max         100 min
Histogram: 1 0 0 0 0 0 0 0 0 0
Nghost:             60 ave          60 max          60 min
Histogram: 1 0 0 0 0 0 0 0 0 0
Neighs:             36 ave          36 max          36 min
Histogram: 1 0 0 0 0 0 0 0 0 0

Total # of neighbors = 36
Ave neighs/atom = 0.36
Ave special neighs/atom = 1.98
Neighbor list builds = 9821
Dangerous builds = 8265
unfix           nvtSoft
unfix           rampSoft
reset_timestep  0

write_data      ${outputfile_relaxed}
write_data      5_relaxed.data
System init for write_data ...
Generated 0 of 6 mixed pair_coeff terms from geometric mixing rule
WARNING: Communication cutoff 1.3 is shorter than a bond length based estimate of 1.7550000000000001. This may lead to errors. (src/comm.cpp:727)
WARNING: Not all mixed pair coeffs generated from mixing. Use write_data with 'pair ij' option to store all pair coeffs. (src/write_data.cpp:309)

###########################################################################
# Full LJ with Coulomb
######################################################################

# Cutoffs and parameters:
# - Values: Marcel Verkade's Bachelor Thesis
# - Mapping to atom groups: Patrick Onck's paper
# - 1: aliphatic, 2: aromatic, 3: anion, 4: cation
# pair_style	lj/cut/coul/cut <lj_cut_global> <coul_cut_global>
# pair_coeff	<type_1>  <type_2>  <eps>  <sigma>  <r_cut_lj>  <r_cut_coul>

# Problem: Onck's model is much more complex, and Marcel has no sigma reported
# Using sigma=1 randomly

variable		glob_ljeps equal 1.0
variable		glob_ljsig 	equal 1.0
variable		glob_coulcut equal 10.0
variable		att_ljcut equal 2.50
variable		rep_ljcut equal 1.12

pair_style		lj/cut/coul/cut 						${att_ljcut} 	${glob_coulcut}
pair_style		lj/cut/coul/cut 						2.5 	${glob_coulcut}
pair_style		lj/cut/coul/cut 						2.5 	10
pair_coeff		1 1 	${glob_ljeps} 	${glob_ljsig}	${att_ljcut} 	${glob_coulcut}
pair_coeff		1 1 	1 	${glob_ljsig}	${att_ljcut} 	${glob_coulcut}
pair_coeff		1 1 	1 	1	${att_ljcut} 	${glob_coulcut}
pair_coeff		1 1 	1 	1	2.5 	${glob_coulcut}
pair_coeff		1 1 	1 	1	2.5 	10
pair_coeff		1 2 	${glob_ljeps} 	${glob_ljsig}	${att_ljcut} 	${glob_coulcut}
pair_coeff		1 2 	1 	${glob_ljsig}	${att_ljcut} 	${glob_coulcut}
pair_coeff		1 2 	1 	1	${att_ljcut} 	${glob_coulcut}
pair_coeff		1 2 	1 	1	2.5 	${glob_coulcut}
pair_coeff		1 2 	1 	1	2.5 	10
pair_coeff		1 3 	${glob_ljeps} 	${glob_ljsig}	${rep_ljcut} 	${glob_coulcut}
pair_coeff		1 3 	1 	${glob_ljsig}	${rep_ljcut} 	${glob_coulcut}
pair_coeff		1 3 	1 	1	${rep_ljcut} 	${glob_coulcut}
pair_coeff		1 3 	1 	1	1.12 	${glob_coulcut}
pair_coeff		1 3 	1 	1	1.12 	10
pair_coeff		1 4 	${glob_ljeps} 	${glob_ljsig}	${rep_ljcut} 	${glob_coulcut}
pair_coeff		1 4 	1 	${glob_ljsig}	${rep_ljcut} 	${glob_coulcut}
pair_coeff		1 4 	1 	1	${rep_ljcut} 	${glob_coulcut}
pair_coeff		1 4 	1 	1	1.12 	${glob_coulcut}
pair_coeff		1 4 	1 	1	1.12 	10
pair_coeff		2 2 	${glob_ljeps} 	${glob_ljsig}	${att_ljcut} 	${glob_coulcut}
pair_coeff		2 2 	1 	${glob_ljsig}	${att_ljcut} 	${glob_coulcut}
pair_coeff		2 2 	1 	1	${att_ljcut} 	${glob_coulcut}
pair_coeff		2 2 	1 	1	2.5 	${glob_coulcut}
pair_coeff		2 2 	1 	1	2.5 	10
pair_coeff		2 3 	${glob_ljeps} 	${glob_ljsig}	${rep_ljcut} 	${glob_coulcut}
pair_coeff		2 3 	1 	${glob_ljsig}	${rep_ljcut} 	${glob_coulcut}
pair_coeff		2 3 	1 	1	${rep_ljcut} 	${glob_coulcut}
pair_coeff		2 3 	1 	1	1.12 	${glob_coulcut}
pair_coeff		2 3 	1 	1	1.12 	10
pair_coeff		2 4 	${glob_ljeps} 	${glob_ljsig}	${att_ljcut} 	${glob_coulcut}
pair_coeff		2 4 	1 	${glob_ljsig}	${att_ljcut} 	${glob_coulcut}
pair_coeff		2 4 	1 	1	${att_ljcut} 	${glob_coulcut}
pair_coeff		2 4 	1 	1	2.5 	${glob_coulcut}
pair_coeff		2 4 	1 	1	2.5 	10
pair_coeff		3 3 	${glob_ljeps} 	${glob_ljsig}	${rep_ljcut} 	${glob_coulcut}
pair_coeff		3 3 	1 	${glob_ljsig}	${rep_ljcut} 	${glob_coulcut}
pair_coeff		3 3 	1 	1	${rep_ljcut} 	${glob_coulcut}
pair_coeff		3 3 	1 	1	1.12 	${glob_coulcut}
pair_coeff		3 3 	1 	1	1.12 	10
pair_coeff		3 4 	${glob_ljeps} 	${glob_ljsig}	${att_ljcut} 	${glob_coulcut}
pair_coeff		3 4 	1 	${glob_ljsig}	${att_ljcut} 	${glob_coulcut}
pair_coeff		3 4 	1 	1	${att_ljcut} 	${glob_coulcut}
pair_coeff		3 4 	1 	1	2.5 	${glob_coulcut}
pair_coeff		3 4 	1 	1	2.5 	10
pair_coeff		4 4 	${glob_ljeps} 	${glob_ljsig}	${rep_ljcut} 	${glob_coulcut}
pair_coeff		4 4 	1 	${glob_ljsig}	${rep_ljcut} 	${glob_coulcut}
pair_coeff		4 4 	1 	1	${rep_ljcut} 	${glob_coulcut}
pair_coeff		4 4 	1 	1	1.12 	${glob_coulcut}
pair_coeff		4 4 	1 	1	1.12 	10


fix             noDriftRot 	all momentum 10 linear 1 1 1 angular
fix             nvt1 		all nvt temp ${Temp} ${Temp} 0.5
fix             nvt1 		all nvt temp 1 ${Temp} 0.5
fix             nvt1 		all nvt temp 1 1 0.5

# dump          assemble 	all custom 1000 				${outputfile_selfasb} id type xu yu zu vx vy vz
dump            lindump 	all custom ${subsample_rate} 	${outputfile_trajlin} id type xu yu zu vx vy vz
dump            lindump 	all custom 1000 	${outputfile_trajlin} id type xu yu zu vx vy vz
dump            lindump 	all custom 1000 	6_b_trajlin.data id type xu yu zu vx vy vz

run             ${runtime}
run             1000000
Generated 0 of 6 mixed pair_coeff terms from geometric mixing rule
Neighbor list info ...
  update every 1 steps, delay 10 steps, check yes
  max neighbors/atom: 2000, page size: 100000
  master list distance cutoff = 10.3
  ghost atom cutoff = 10.3
  binsize = 5.15, bins = 7 7 7
  1 neighbor lists, perpetual/occasional/extra = 1 0 0
  (1) pair lj/cut/coul/cut, perpetual
      attributes: half, newton on
      pair build: half/bin/newton
      stencil: half/bin/3d
      bin: standard
Per MPI rank memory allocation (min/avg/max) = 7.712 | 7.712 | 7.712 Mbytes
   Step          Temp         Density         Press          TotEng         PotEng         KinEng         E_pair         S/CPU     
         0   1.1904942      0.0023323615  -0.0011270076   22.052921      20.285037      1.7678839     -0.26329686     0            
      1000   1.0163425      0.0023323615   0.0013809196   21.379102      19.869834      1.5092685     -0.65350314     33548.785    
      2000   0.79833082     0.0023323615   0.0020808763   20.865299      19.679777      1.1855213     -0.74229932     30616.644    
      3000   1.039069       0.0023323615  -0.00083433772  21.163695      19.620677      1.5430175     -0.88455006     26471.888    
      4000   0.9784215      0.0023323615  -0.00053693563  20.782769      19.329813      1.4529559     -1.2038033      22495.606    
      5000   0.97067659     0.0023323615  -0.00012468545  20.517917      19.076463      1.4414547     -1.4010473      19717.846    
      6000   1.0536693      0.0023323615  -0.00065103644  20.826757      19.262058      1.5646989     -1.2635492      18474.508    
      7000   0.97498852     0.0023323615   0.0013463026   20.831574      19.383716      1.4478579     -1.1831672      18618.081    
      8000   0.98634544     0.0023323615  -0.00025984625  20.836918      19.372195      1.464723      -1.1521131      18776.191    
      9000   0.92845979     0.0023323615  -0.0020104094   20.638629      19.259866      1.3787628     -1.188129       19721.707    
     10000   1.0097596      0.0023323615   0.0028794448   20.9734        19.473907      1.4994931     -1.0317568      19319.55     
     11000   0.92066364     0.0023323615  -0.0013288004   20.695874      19.328688      1.3671855     -1.147403       19011.514    
     12000   1.0557642      0.0023323615  -0.0010918912   20.835498      19.267688      1.5678098     -1.3102314      18878.876    
     13000   1.0496438      0.0023323615   8.5193209e-06  20.67328       19.114559      1.558721      -1.3850087      18608.522    
     14000   1.2590592      0.0023323615  -0.0015367878   21.094617      19.224914      1.869703      -1.3739548      18726.604    
     15000   1.1098094      0.0023323615   0.0038021648   20.868381      19.220314      1.648067      -1.3088649      18649.386    
     16000   1.1283131      0.0023323615   0.0040144265   20.471662      18.796117      1.6755449     -1.6815667      18484.169    
     17000   0.98760466     0.0023323615   0.00023659607  20.888129      19.421536      1.4665929     -1.2528384      18502.755    
     18000   0.94514565     0.0023323615   0.0012424121   20.366137      18.962595      1.4035413     -1.4444427      18511.78     
     19000   1.0255047      0.0023323615  -0.002219768    21.005012      19.482138      1.5228744     -1.1491069      18646.919    
     20000   0.975063       0.0023323615   0.001495401    20.743802      19.295833      1.4479686     -1.3322689      18851.139    
     21000   0.85053455     0.0023323615  -0.0001649563   20.293616      19.030572      1.2630438     -1.4060528      18517.787    
     22000   0.98651545     0.0023323615  -0.00047768102  20.717861      19.252886      1.4649754     -1.3363647      18472.443    
     23000   1.0082375      0.0023323615   0.00023889552  20.552951      19.055718      1.4972327     -1.5220354      18447.094    
     24000   1.0762613      0.0023323615  -0.0034165231   20.803509      19.20526       1.5982481     -1.3787417      18438.636    
     25000   1.1891986      0.0023323615  -0.0007721658   20.875402      19.109442      1.7659599     -1.3842603      18472.518    
     26000   1.1695638      0.0023323615   0.0032445379   21.026291      19.289488      1.7368023     -1.436877       18707.641    
     27000   0.87918864     0.0023323615   0.0045136057   20.462388      19.156793      1.3055951     -1.3247197      18508.56     
     28000   1.0386096      0.0023323615  -0.0015082652   20.515826      18.97349       1.5423352     -1.5747478      18379.11     
     29000   0.92390872     0.0023323615  -0.00090044768  20.86893       19.496925      1.3720044     -1.1652842      18530.851    
     30000   1.0852728      0.0023323615  -0.00079865826  20.649154      19.037524      1.6116301     -1.5475293      18613.273    
     31000   1.0103136      0.0023323615  -0.0024890636   20.611722      19.111406      1.5003157     -1.4478815      18676.912    
     32000   0.94770916     0.0023323615  -0.00012325556  20.532484      19.125136      1.4073481     -1.3523829      18534.275    
     33000   0.97663894     0.0023323615  -0.00067606722  20.744993      19.294684      1.4503088     -1.254083       18562.218    
     34000   0.95695218     0.0023323615   2.5310975e-05  20.744631      19.323557      1.421074      -1.1719869      18627.831    
     35000   0.93694092     0.0023323615   0.00084734948  20.422788      19.03143       1.3913573     -1.3603656      18768.494    
     36000   1.0329651      0.0023323615  -0.002815512    20.678042      19.144089      1.5339532     -1.3564159      18656.232    
     37000   1.1599889      0.0023323615  -0.0033616525   20.986403      19.26382       1.7225835     -1.1870879      18590.717    
     38000   0.87192478     0.0023323615  -0.0039096811   20.42359       19.128781      1.2948083     -1.4559788      18478.537    
     39000   0.99213559     0.0023323615   0.0034793775   20.701237      19.227916      1.4733213     -1.4411833      18597.981    
     40000   0.92822449     0.0023323615  -0.00010354106  20.519038      19.140624      1.3784134     -1.2656278      18534.185    
     41000   1.0987422      0.0023323615   0.00026951407  20.878165      19.246533      1.6316322     -1.3541803      18458.515    
     42000   0.96164607     0.0023323615  -0.00069122698  20.524775      19.09673       1.4280444     -1.417503       18640.842    
     43000   0.96839568     0.0023323615  -0.00032287047  20.682951      19.244883      1.4380676     -1.2763172      18620.499    
     44000   1.037307       0.0023323615  -0.0014528474   20.763897      19.223496      1.540401      -1.3240526      18670.404    
     45000   0.97828457     0.0023323615  -0.0014465362   20.750688      19.297935      1.4527526     -1.2128143      18692.698    
     46000   0.9158787      0.0023323615   0.0017110015   20.62956       19.26948       1.3600799     -1.2829566      18737.007    
     47000   1.0905557      0.0023323615   0.0016680257   20.94509       19.325614      1.6194752     -1.2169072      18530.397    
     48000   1.0551994      0.0023323615  -0.0045585367   20.669047      19.102076      1.5669711     -1.5116066      18699.923    
     49000   0.97133876     0.0023323615  -0.00044287541  20.4788        19.036362      1.4424381     -1.4159101      18420.899    
     50000   1.1510365      0.0023323615  -0.0029998168   20.844291      19.135002      1.7092892     -1.4055675      18424.592    
     51000   1.1561949      0.0023323615  -0.0024734783   20.873172      19.156223      1.7169494     -1.4356274      18419.805    
     52000   1.0007957      0.0023323615  -0.0023374629   20.624704      19.138522      1.4861816     -1.2441714      18522.845    
     53000   0.9188863      0.0023323615   0.0024232636   20.438477      19.073931      1.3645462     -1.3500752      18466.021    
     54000   0.9996217      0.0023323615   0.0010262106   20.64854       19.164102      1.4844382     -1.258591       18618.078    
     55000   0.82490298     0.0023323615  -0.00040675201  20.250672      19.025691      1.2249809     -1.5136137      18433.616    
     56000   0.97457836     0.0023323615  -0.0011853917   20.422028      18.97478       1.4472489     -1.5198647      18439.716    
     57000   0.98450806     0.0023323615   0.0037146259   20.590371      19.128377      1.4619945     -1.5056123      18334.065    
     58000   1.0148364      0.0023323615   0.0010308058   20.601266      19.094234      1.5070321     -1.2984495      18378.654    
     59000   1.0606285      0.0023323615   0.00044910127  20.54677       18.971737      1.5750334     -1.4704427      18361.441    
     60000   1.0194634      0.0023323615  -0.00079353786  20.706829      19.192926      1.5139032     -1.3325873      18312.779    
     61000   0.97375667     0.0023323615  -0.000195419    20.45651       19.010481      1.4460287     -1.5244619      18364.431    
     62000   0.95242815     0.0023323615  -0.0027625755   20.684945      19.270589      1.4143558     -1.3066778      18451.909    
     63000   1.0233905      0.0023323615  -0.00096953259  20.777658      19.257923      1.519735      -1.1664222      18785.979    
     64000   1.0102707      0.0023323615   0.00014762728  20.6515        19.151248      1.500252      -1.3075666      18714.017    
     65000   1.1319044      0.0023323615  -0.0013195834   20.934025      19.253146      1.6808781     -1.316254       18560.789    
     66000   1.0737349      0.0023323615  -0.0022336108   21.096404      19.501908      1.5944964     -1.146271       18559.205    
     67000   1.2181327      0.0023323615  -0.0014568336   20.945334      19.136407      1.8089271     -1.3428755      18477.347    
     68000   1.0346475      0.0023323615   0.00039955245  20.696946      19.160495      1.5364516     -1.3779988      18471.311    
     69000   1.0957399      0.0023323615  -0.0013228485   21.00533       19.378156      1.6271737     -1.2186902      18544.061    
     70000   0.8892075      0.0023323615   0.0016042481   20.623402      19.302929      1.3204731     -1.2576416      18520.739    
     71000   0.92312831     0.0023323615   0.0051552213   20.59547       19.224625      1.3708455     -1.3893342      18617.432    
     72000   0.91243493     0.0023323615   0.0045528102   20.246334      18.891368      1.3549659     -1.6294011      18501.366    
     73000   1.1329194      0.0023323615  -0.0032839412   20.941177      19.258792      1.6823853     -1.3353678      18487.953    
     74000   1.0919363      0.0023323615  -0.00073137934  20.633485      19.011959      1.6215253     -1.5247656      18427.892    
     75000   1.08828        0.0023323615  -0.0022523745   20.744761      19.128665      1.6160959     -1.3272623      18334.718    
     76000   0.96766122     0.0023323615  -0.0016418105   20.523062      19.086085      1.4369769     -1.5352056      18411.215    
     77000   1.0629879      0.0023323615  -0.0032356474   20.884468      19.305931      1.578537      -1.2530859      18390.431    
     78000   0.99731027     0.0023323615   0.0037069006   20.641707      19.160701      1.4810058     -1.4364891      18373.498    
     79000   1.1456619      0.0023323615   0.0018463787   20.903195      19.201888      1.7013079     -1.275074       18430.536    
     80000   0.90853257     0.0023323615  -0.0027918857   20.4075        19.058329      1.3491709     -1.4386291      18201.717    
     81000   1.0450628      0.0023323615  -0.0021889768   20.843107      19.291189      1.5519182     -1.4390339      18419.499    
     82000   0.91611323     0.0023323615  -0.00050582388  20.638641      19.278213      1.3604281     -1.3295711      18605.813    
     83000   1.143041       0.0023323615   0.0014320986   20.831805      19.134389      1.6974158     -1.3299361      18407.759    
     84000   1.0048448      0.0023323615   0.0012684406   20.639276      19.147082      1.4921945     -1.419491       18436.984    
     85000   0.94527462     0.0023323615   0.00037730535  20.684819      19.281086      1.4037328     -1.353702       18373.812    
     86000   0.99378076     0.0023323615   0.0039933852   20.661359      19.185595      1.4757644     -1.2470258      18545.698    
     87000   1.1723735      0.0023323615   0.00044525862  20.725353      18.984378      1.7409747     -1.5123594      18372.202    
     88000   1.0025641      0.0023323615  -0.0034241882   20.523767      19.03496       1.4888077     -1.4471722      18441.269    
     89000   1.088978       0.0023323615   0.0045151555   20.780868      19.163736      1.6171324     -1.3994576      18598.723    
     90000   0.88819076     0.0023323615   0.0013932958   20.416071      19.097107      1.3189633     -1.426628       18469.083    
     91000   1.0611729      0.0023323615   0.00068016075  20.576256      19.000414      1.5758418     -1.5974247      18502.717    
     92000   1.1309929      0.0023323615  -0.002150151    21.036657      19.357132      1.6795245     -1.2855078      18607.46     
     93000   0.87654212     0.0023323615   0.0034228281   20.491763      19.190098      1.301665      -1.3152141      18585.494    
     94000   0.9895149      0.0023323615   0.002024273    20.505719      19.036289      1.4694296     -1.5137332      18466.298    
     95000   1.0494589      0.0023323615   0.00035005046  20.75773       19.199283      1.5584464     -1.4124875      18502.179    
     96000   1.1602154      0.0023323615  -0.0027639001   21.046312      19.323392      1.7229199     -1.3483289      18489.915    
     97000   0.94663002     0.0023323615  -0.0021853592   20.57229       19.166545      1.4057456     -1.4989825      18593.637    
     98000   0.99341297     0.0023323615   0.001372779    20.538062      19.062844      1.4752183     -1.4820128      18420.746    
     99000   1.0441002      0.0023323615  -0.00033316102  20.576323      19.025834      1.5504887     -1.367844       18422.64     
    100000   1.0348463      0.0023323615   0.00031522677  20.530835      18.994088      1.5367467     -1.5219619      18444.213    
    101000   0.91623149     0.0023323615  -0.0015849317   20.633729      19.273125      1.3606038     -1.2846024      18409.277    
    102000   0.94008374     0.0023323615   0.0012298205   20.530065      19.13404       1.3960244     -1.3056198      18665.467    
    103000   1.0220136      0.0023323615   0.0050688509   20.705576      19.187886      1.5176902     -1.3506419      18717.849    
    104000   0.99795608     0.0023323615  -0.00059567478  20.75307       19.271105      1.4819648     -1.2866679      18641.796    
    105000   0.95676799     0.0023323615   0.00028685498  20.483789      19.062989      1.4208005     -1.57606        18551.937    
    106000   0.93152449     0.0023323615  -0.00094750054  20.738418      19.355104      1.3833139     -1.1854191      18698.581    
    107000   0.9389196      0.0023323615  -0.0019789595   20.661653      19.267357      1.3942956     -1.3485322      18707.623    
    108000   1.0178717      0.0023323615  -0.0061254095   20.78074       19.269201      1.5115395     -1.3095869      18518.271    
    109000   0.90997601     0.0023323615  -0.00013574994  20.455138      19.103823      1.3513144     -1.4732695      18586.792    
    110000   0.98694986     0.0023323615   0.00032569546  20.520576      19.054956      1.4656205     -1.5152378      18517.007    
    111000   0.92075389     0.0023323615  -0.0017411251   20.484273      19.116953      1.3673195     -1.3288987      18513.95     
    112000   0.91047461     0.0023323615  -0.004124069    20.461326      19.109271      1.3520548     -1.3900266      18548.296    
    113000   0.95859806     0.0023323615   0.0003215942   20.488489      19.064971      1.4235181     -1.3850696      18695.352    
    114000   1.0871556      0.0023323615  -0.0033260874   20.708743      19.094317      1.6144261     -1.3456559      18610.336    
    115000   1.1252427      0.0023323615   0.00040888476  20.802855      19.131869      1.6709854     -1.2604616      18449.31     
    116000   1.1116321      0.0023323615   0.004144437    20.942791      19.292017      1.6507736     -1.2122661      18490.631    
    117000   1.174538       0.0023323615   0.0020732205   21.11198       19.367791      1.744189      -1.3350577      18433.684    
    118000   0.88575937     0.0023323615  -0.0019485222   20.696847      19.381494      1.3153527     -1.1739383      18390.394    
    119000   1.1150748      0.0023323615   0.0042936653   20.911764      19.255878      1.6558861     -1.1735156      18608.068    
    120000   0.96983532     0.0023323615  -0.001369516    20.581458      19.141252      1.4402054     -1.4719837      18499.068    
    121000   1.0519304      0.0023323615   0.0021365071   20.786872      19.224755      1.5621167     -1.3711377      18338.077    
    122000   1.0164799      0.0023323615   0.0014751087   20.882932      19.373459      1.5094726     -1.2751292      18454.239    
    123000   1.032862       0.0023323615   0.0029207173   20.669582      19.135782      1.5338001     -1.3719126      18531.859    
    124000   0.87287949     0.0023323615  -0.00010616752  20.661641      19.365415      1.296226      -1.2137297      18638.155    
    125000   1.0264518      0.0023323615   0.00013340595  20.857033      19.332752      1.524281      -1.2526628      18738.484    
    126000   0.9924379      0.0023323615  -0.002539546    21.009306      19.535535      1.4737703     -1.1190165      18901.703    
    127000   1.0551823      0.0023323615   0.00079556835  20.705035      19.138089      1.5669457     -1.3400179      18799.411    
    128000   0.99544291     0.0023323615  -0.00027583063  21.200815      19.722583      1.4782327     -1.0306278      18939.908    
    129000   0.92164059     0.0023323615  -0.0028226558   20.8064        19.437764      1.3686363     -1.1498675      18606.579    
    130000   1.0808183      0.0023323615   0.00063006627  20.836108      19.231093      1.6050152     -1.3573154      18595.913    
    131000   0.89998541     0.0023323615  -8.7906288e-05  20.578452      19.241974      1.3364783     -1.354578       18648.02     
    132000   1.0651524      0.0023323615   0.0035712016   20.842057      19.260306      1.5817513     -1.2973869      18498.294    
    133000   0.97707108     0.0023323615   0.00089572779  20.445495      18.994544      1.4509506     -1.3628024      18538.719    
    134000   0.97730373     0.0023323615   0.0028917644   20.481958      19.030662      1.451296      -1.4386224      18571.44     
    135000   1.1124585      0.0023323615  -0.0013768206   20.894365      19.242364      1.6520008     -1.3332304      18620.047    
    136000   0.99157847     0.0023323615   0.00077812658  20.808776      19.336282      1.472494      -1.1773182      18698.802    
    137000   1.0624222      0.0023323615   0.00064549059  20.945697      19.368         1.577697      -1.2537322      18976.681    
    138000   1.0021025      0.0023323615  -0.0023849604   20.762697      19.274575      1.4881222     -1.1904627      18709.531    
    139000   1.0792907      0.0023323615   0.0020302908   21.045406      19.442659      1.6027467     -1.1937054      18577.364    
    140000   1.0436166      0.0023323615  -0.0002470641   20.636108      19.086337      1.5497706     -1.4139315      18637.689    
    141000   0.96646083     0.0023323615  -0.0035718175   20.664731      19.229536      1.4351943     -1.25062        18524.458    
    142000   0.94264004     0.0023323615   0.0015000177   20.677948      19.278127      1.3998205     -1.2707356      18631.705    
    143000   0.94619345     0.0023323615  -0.0021110739   20.471127      19.066029      1.4050973     -1.4419798      18632.807    
    144000   1.1307637      0.0023323615   0.0023902616   21.137673      19.458489      1.6791841     -1.0095737      18800.976    
    145000   0.88516715     0.0023323615   0.002142548    20.429082      19.114609      1.3144732     -1.3713472      18690.958    
    146000   0.95997105     0.0023323615   0.0036112104   20.649414      19.223857      1.425557      -1.2947866      18651.341    
    147000   0.96182225     0.0023323615  -0.0045009145   20.683651      19.255345      1.428306      -1.2249254      18563.392    
    148000   0.86035819     0.0023323615   0.00054515352  20.339257      19.061625      1.2776319     -1.3640292      18551.482    
    149000   1.1432218      0.0023323615  -0.0025209196   20.850523      19.152839      1.6976844     -1.4516781      18516.997    
    150000   1.0354494      0.0023323615   0.0037249791   20.598014      19.060371      1.5376424     -1.3488946      18481.466    
    151000   0.87660127     0.0023323615  -0.0010156976   20.349584      19.047831      1.3017529     -1.4058102      18563.641    
    152000   0.95916368     0.0023323615  -0.0022553056   20.688077      19.263719      1.4243581     -1.3270368      18432.973    
    153000   0.99705904     0.0023323615  -0.0011632651   20.948715      19.468082      1.4806327     -1.1280909      18640.654    
    154000   0.97254054     0.0023323615  -0.00091787997  20.848693      19.404471      1.4442227     -1.2262389      18670.173    
    155000   1.1568498      0.0023323615   0.0027434122   20.731462      19.01354       1.7179219     -1.6384238      18393.62     
    156000   0.85908844     0.0023323615   0.0034306911   20.51647       19.240724      1.2757463     -1.4255512      18464.006    
    157000   0.90430605     0.0023323615  -0.0041563398   20.681092      19.338198      1.3428945     -1.404132       18528.034    
    158000   1.229058       0.0023323615  -0.0023764165   20.953257      19.128106      1.8251512     -1.3559909      18593.505    
    159000   1.0088065      0.0023323615  -0.0030871614   20.435723      18.937646      1.4980776     -1.4847986      18423.694    
    160000   1.0102752      0.0023323615  -0.0033954238   20.942028      19.441769      1.5002587     -1.1584926      18599.912    
    161000   1.0569021      0.0023323615   0.0022675487   20.829931      19.260431      1.5694996     -1.2168878      18535.39     
    162000   1.0827276      0.0023323615  -0.00011194673  20.685864      19.078014      1.6078504     -1.3536119      18572.76     
    163000   0.99309147     0.0023323615  -0.00019634175  20.510636      19.035895      1.4747408     -1.4890777      18411.817    
    164000   1.0072679      0.0023323615  -0.0012046244   20.838544      19.342751      1.4957929     -1.2525072      18594.946    
    165000   0.9793853      0.0023323615  -0.0011676672   20.446228      18.991841      1.4543872     -1.5538394      18509.058    
    166000   1.1136324      0.0023323615  -0.00081278139  20.711918      19.058173      1.6537441     -1.430676       18539.298    
    167000   1.0449409      0.0023323615   0.0027291308   20.931872      19.380135      1.5517372     -1.2519229      18591.528    
    168000   0.94203641     0.0023323615   0.00045099822  20.665018      19.266094      1.3989241     -1.3347949      18585.608    
    169000   1.1007881      0.0023323615  -0.0021820254   20.668341      19.033671      1.6346703     -1.4320818      18573.23     
    170000   0.97669311     0.0023323615   0.0015894365   20.397371      18.946981      1.4503893     -1.5053856      18562.218    
    171000   1.0659752      0.0023323615   0.0027824465   20.754895      19.171922      1.5829732     -1.2958653      18513.82     
    172000   1.1232913      0.0023323615  -0.0015892326   20.83135       19.163263      1.6680876     -1.3965207      18600.709    
    173000   0.87421962     0.0023323615  -0.0016132285   20.360744      19.062527      1.2982161     -1.5010244      18481.627    
    174000   1.0791944      0.0023323615   0.0025241645   20.84709       19.244487      1.6026036     -1.2890971      18571.036    
    175000   0.95568107     0.0023323615  -0.0041779838   20.615686      19.1965        1.4191864     -1.2674204      18669.877    
    176000   0.96147574     0.0023323615   0.0013302116   20.511275      19.083484      1.4277915     -1.3627739      18620.033    
    177000   0.88996395     0.0023323615  -0.0013177093   20.761998      19.440402      1.3215965     -1.1438405      18527.821    
    178000   0.91692783     0.0023323615   0.0014465057   20.708078      19.34644       1.3616378     -1.1564275      18727.989    
    179000   1.0949357      0.0023323615   0.0035559992   21.065035      19.439056      1.6259796     -1.2209527      18763.562    
    180000   1.1085255      0.0023323615  -0.002453051    20.976507      19.330347      1.6461604     -1.214406       18669.52     
    181000   0.98143528     0.0023323615  -0.00030432067  20.464181      19.006749      1.4574314     -1.4623536      18949.671    
    182000   1.0362993      0.0023323615  -0.00011714313  20.552032      19.013128      1.5389045     -1.5787284      18669.845    
    183000   0.92157315     0.0023323615   0.001722684    20.655116      19.28658       1.3685361     -1.2602588      18642.74     
    184000   1.0440068      0.0023323615   0.0019882445   20.745804      19.195453      1.5503501     -1.3120385      18675.962    
    185000   0.92544704     0.0023323615  -0.0017167011   20.704131      19.329842      1.3742889     -1.1653947      18809.238    
    186000   0.97773637     0.0023323615  -0.00053577825  21.110896      19.658957      1.4519385     -0.91491327     19091.475    
    187000   0.9838236      0.0023323615  -0.00014393069  20.812889      19.351911      1.460978      -1.233567       18962.768    
    188000   1.104443       0.0023323615   0.00020804996  20.979905      19.339808      1.6400978     -1.157573       19248.898    
    189000   1.1911234      0.0023323615  -9.2271714e-05  20.978439      19.20962       1.7688182     -1.2901263      19512.652    
    190000   1.0521371      0.0023323615   0.0016422996   20.743819      19.181396      1.5624237     -1.3233812      19207.907    
    191000   1.0643708      0.0023323615   0.0031083918   20.915013      19.334422      1.5805906     -1.3274337      18888.021    
    192000   1.2011779      0.0023323615  -0.00034841968  21.012789      19.22904       1.7837492     -1.4062094      18392.82     
    193000   1.067192       0.0023323615  -0.0012988758   20.820572      19.235792      1.5847801     -1.2429809      18672.901    
    194000   1.0121863      0.0023323615  -0.0013074945   20.78836       19.285263      1.5030966     -1.2704631      18598.772    
    195000   1.1505408      0.0023323615   0.00021867055  21.032102      19.323549      1.7085531     -1.2230556      18757.69     
    196000   0.97826248     0.0023323615  -0.0008699062   20.715625      19.262905      1.4527198     -1.2847655      18746.008    
    197000   1.0118266      0.0023323615  -0.0020025083   20.777023      19.274461      1.5025625     -1.3361938      18642.583    
    198000   0.97139226     0.0023323615   0.0017510648   20.614869      19.172352      1.4425175     -1.3035782      18559.73     
    199000   0.98839496     0.0023323615  -0.0015129205   20.65012       19.182353      1.4677665     -1.3820305      18544.433    
    200000   0.9031167      0.0023323615  -0.0011766132   20.255336      18.914207      1.3411283     -1.5549374      18512.319    
    201000   0.97390638     0.0023323615  -0.0050460442   20.793215      19.346964      1.446251      -1.3157883      18411.127    
    202000   1.1051344      0.0023323615  -0.0016800893   20.836181      19.195056      1.6411245     -1.2972502      18525.758    
    203000   0.81394726     0.0023323615  -0.00179344     20.337868      19.129157      1.2087117     -1.3085334      18589.035    
    204000   0.97054076     0.0023323615  -0.0036847213   20.862149      19.420895      1.441253      -1.2009337      18663.184    
    205000   0.92946178     0.0023323615   0.0014512899   20.766654      19.386403      1.3802507     -1.0977596      18663.47     
    206000   0.95569418     0.0023323615   0.00077734556  20.555927      19.136721      1.4192059     -1.5778502      18633.315    
    207000   0.9313377      0.0023323615  -0.0040325636   20.176117      18.793081      1.3830365     -1.6543826      18531.037    
    208000   0.9368589      0.0023323615   0.00088383009  20.832603      19.441368      1.3912355     -1.1200915      18710.197    
    209000   1.0452077      0.0023323615   0.0035432425   20.746683      19.194549      1.5521334     -1.3535944      18532.788    
    210000   0.95691954     0.0023323615  -0.0043721938   20.647776      19.226751      1.4210255     -1.2849788      18641.378    
    211000   0.8401098      0.0023323615  -0.003895475    20.482757      19.235193      1.247563      -1.3514214      18673.977    
    212000   1.0167461      0.0023323615  -0.00090380981  20.821471      19.311603      1.509868      -1.1815779      18774.686    
    213000   1.2224296      0.0023323615   0.00075602187  20.772771      18.957463      1.8153079     -1.5252032      18693.926    
    214000   0.99256098     0.0023323615  -0.00081084721  20.634357      19.160404      1.4739531     -1.3237402      18552.503    
    215000   0.91471873     0.0023323615  -0.0014509699   20.682293      19.323936      1.3583573     -1.1919449      18977.799    
    216000   1.1711269      0.0023323615  -0.0021748318   21.113221      19.374098      1.7391235     -1.1692767      19771.641    
    217000   0.97054669     0.0023323615  -0.0024487607   20.911575      19.470313      1.4412618     -1.041882       19185.846    
    218000   1.0308026      0.0023323615   0.00014369041  20.683938      19.153196      1.5307419     -1.4574337      18711.263    
    219000   0.90302568     0.0023323615  -0.00042610337  20.63785       19.296857      1.3409931     -1.1902716      18655.688    
    220000   0.88317005     0.0023323615   0.0010120294   20.52758       19.216072      1.3115075     -1.2237274      18832.512    
    221000   0.98687353     0.0023323615   0.0038126022   20.714184      19.248677      1.4655072     -1.2399741      18673.876    
    222000   0.97397459     0.0023323615   0.0011924314   20.67322       19.226868      1.4463523     -1.3144972      18596.176    
    223000   0.86003473     0.0023323615   0.0038208842   20.540738      19.263587      1.2771516     -1.3461006      18378.691    
    224000   0.94138466     0.0023323615  -0.00017018578  20.541449      19.143492      1.3979562     -1.2898602      18641.396    
    225000   1.1449738      0.0023323615  -0.00014381343  20.789309      19.089023      1.700286      -1.3366957      18604.53     
    226000   1.0674447      0.0023323615   0.0025247249   20.789714      19.204559      1.5851554     -1.3872552      18533.445    
    227000   0.92427824     0.0023323615   0.0012194947   20.49641       19.123857      1.3725532     -1.4486195      18546.036    
    228000   0.99211887     0.0023323615   0.0021371376   20.683914      19.210618      1.4732965     -1.2937559      18477.08     
    229000   1.1480978      0.0023323615  -0.0018400827   21.165211      19.460285      1.7049253     -1.1147971      18668.343    
    230000   0.97200965     0.0023323615  -0.0010953688   20.540726      19.097292      1.4434343     -1.3373139      18354.509    
    231000   1.0283101      0.0023323615  -4.0237006e-05  20.58087       19.053829      1.5270405     -1.3893541      18376.058    
    232000   1.0486973      0.0023323615   0.002775115    20.708772      19.151456      1.5573155     -1.3084173      18194.895    
    233000   1.0631663      0.0023323615  -0.0015047993   20.805934      19.227133      1.578802      -1.3563899      18581.293    
    234000   1.0389732      0.0023323615   0.0041079338   20.772053      19.229178      1.5428752     -1.3349329      18915.372    
    235000   0.89937733     0.0023323615  -0.002348118    20.566851      19.231276      1.3355753     -1.2746275      18677.279    
    236000   0.93059363     0.0023323615   0.00029920033  20.504347      19.122415      1.3819315     -1.3845559      18446.882    
    237000   0.97694472     0.0023323615  -0.00015178589  20.602562      19.151799      1.4507629     -1.2375482      18792.19     
    238000   1.0504607      0.0023323615   0.002539898    20.880597      19.320663      1.5599341     -1.1450727      18714.715    
    239000   0.92779972     0.0023323615  -0.00086539561  20.61692       19.239137      1.3777826     -1.2953965      18575.625    
    240000   0.98969598     0.0023323615   0.00063109107  20.600804      19.131106      1.4696985     -1.3019274      18257.612    
    241000   1.0012416      0.0023323615   0.0010692658   20.471111      18.984268      1.4868437     -1.4624846      18473        
    242000   1.1325848      0.0023323615  -0.0037252956   21.062325      19.380437      1.6818885     -1.084944       18563.351    
    243000   1.0307952      0.0023323615  -0.0005975318   20.697264      19.166533      1.5307309     -1.4757001      18606.562    
    244000   1.0199888      0.0023323615  -0.00097972093  20.848909      19.334225      1.5146833     -1.2950793      18550.217    
    245000   0.9843586      0.0023323615  -0.0021563133   20.663848      19.202075      1.4617725     -1.3702487      18508.55     
    246000   0.98076095     0.0023323615   0.0010305643   20.437158      18.980728      1.45643       -1.383561       18641.835    
    247000   0.94325223     0.0023323615   0.0022703598   20.696384      19.295655      1.4007296     -1.1493657      18570.462    
    248000   0.95747104     0.0023323615  -0.0027296163   20.510288      19.088444      1.4218445     -1.4006075      18453.226    
    249000   1.1208995      0.0023323615   0.00013228153  20.873482      19.208946      1.6645358     -1.2816828      18392.322    
    250000   0.93007294     0.0023323615  -0.0010889469   20.478107      19.096949      1.3811583     -1.4326437      18369.555    
    251000   1.0460195      0.0023323615  -0.0021369817   20.643035      19.089696      1.5533389     -1.380108       18209.873    
    252000   1.1317823      0.0023323615  -0.0032046569   20.767766      19.087069      1.6806967     -1.4511459      18368.997    
    253000   1.0763918      0.0023323615  -0.0022783295   20.714787      19.116345      1.5984418     -1.3713299      18462.858    
    254000   1.023528       0.0023323615  -0.004446389    20.620211      19.100272      1.5199391     -1.4786808      18511.489    
    255000   0.9293824      0.0023323615  -0.0048901071   20.587882      19.207749      1.3801329     -1.4023252      18423.3      
    256000   0.99995696     0.0023323615  -0.0024864881   20.601678      19.116742      1.4849361     -1.4452832      18241.315    
    257000   0.92398961     0.0023323615   0.0022382069   20.600004      19.227879      1.3721246     -1.2916646      18238.316    
    258000   0.95905913     0.0023323615   0.0013705462   20.726654      19.302452      1.4242028     -1.2035744      18722.558    
    259000   0.99460107     0.0023323615  -0.0026207641   20.43457       18.957587      1.4769826     -1.43865        18315.77     
    260000   0.99385155     0.0023323615   0.0012490247   20.80862       19.332751      1.4758696     -1.2355035      18218.658    
    261000   0.91161368     0.0023323615   0.0030166268   20.619954      19.266208      1.3537463     -1.2274824      18474.296    
    262000   0.88955601     0.0023323615   0.0018846442   20.441319      19.120328      1.3209907     -1.344138       18441.8      
    263000   0.84674545     0.0023323615   0.0016508983   20.486115      19.228698      1.257417      -1.3561753      18334.971    
    264000   0.91897977     0.0023323615  -0.0014742413   20.572774      19.208089      1.364685      -1.3362295      18424.351    
    265000   0.9364487      0.0023323615  -0.0042221111   20.740895      19.350269      1.3906263     -1.2279824      18296.428    
    266000   1.1595045      0.0023323615   0.0015005345   21.147364      19.4255        1.7218642     -1.0628847      18446.906    
    267000   1.0230888      0.0023323615  -0.0012106287   20.883545      19.364258      1.5192869     -1.1526455      18385.872    
    268000   1.0030307      0.0023323615  -0.00017443243  20.561945      19.072444      1.4895006     -1.4810034      18394.722    
    269000   0.99626797     0.0023323615  -0.0037451887   20.749682      19.270225      1.4794579     -1.2697642      18432.322    
    270000   1.0260807      0.0023323615  -0.0015466334   20.854953      19.331223      1.5237298     -1.241561       18480.463    
    271000   1.1152281      0.0023323615  -0.0010202667   20.874378      19.218264      1.6561137     -1.3438951      18531.367    
    272000   1.1476064      0.0023323615  -0.00088824229  20.61225       18.908055      1.7041956     -1.5574059      18454.809    
    273000   1.009276       0.0023323615   0.0029833946   20.416246      18.917471      1.4987749     -1.513102       18538.416    
    274000   0.98740424     0.0023323615   0.0028021662   20.545226      19.078931      1.4662953     -1.4852913      18322.262    
    275000   0.9804936      0.0023323615  -0.0064681737   20.863183      19.40715       1.456033      -1.23081        18588.114    
    276000   1.1261107      0.0023323615   0.0011084241   20.61098       18.938706      1.6722743     -1.4974893      18423.035    
    277000   1.0326498      0.0023323615  -0.0014381186   20.950648      19.417164      1.533485      -1.1117069      18625.381    
    278000   0.97205731     0.0023323615  -0.0032440579   20.549555      19.10605       1.4435051     -1.4450984      18596.093    
    279000   1.0980805      0.0023323615  -0.00033830253  20.962706      19.332056      1.6306495     -1.283509       18692.911    
    280000   1.0529026      0.0023323615  -0.0017747304   20.780546      19.216985      1.5635604     -1.3468442      18533.26     
    281000   0.9344043      0.0023323615  -0.00095539369  20.672833      19.285243      1.3875904     -1.3570528      18498.51     
    282000   1.0370851      0.0023323615   0.002153208    20.66149       19.121419      1.5400713     -1.4003832      18465.656    
    283000   1.0996451      0.0023323615  -0.00096649458  20.87602       19.243047      1.6329729     -1.2698726      18414.765    
    284000   1.0240109      0.0023323615  -0.0053331956   20.694216      19.17356       1.5206562     -1.2981617      18514.747    
    285000   0.91854676     0.0023323615  -0.00045111296  20.42743       19.063388      1.3640419     -1.4939007      18450.452    
    286000   0.82431872     0.0023323615  -0.0033487578   20.150819      18.926706      1.2241133     -1.5410243      18345.688    
    287000   0.91220279     0.0023323615   0.0018090208   20.668431      19.31381       1.3546211     -1.3293913      18429.923    
    288000   1.1937093      0.0023323615  -0.001507923    20.943376      19.170718      1.7726584     -1.3170246      18504.418    
    289000   1.0513657      0.0023323615  -0.0026672533   20.921309      19.36003       1.5612781     -1.1970215      18581.574    
    290000   1.0286467      0.0023323615  -0.00032324767  20.616615      19.089074      1.5275403     -1.4974089      18566.966    
    291000   1.0173758      0.0023323615   0.00057396858  20.584006      19.073203      1.5108031     -1.3609535      18462.432    
    292000   0.99625528     0.0023323615   0.00032647129  20.488464      19.009025      1.4794391     -1.4992833      18500.553    
    293000   0.87087668     0.0023323615   0.0018045223   20.528758      19.235506      1.2932519     -1.2019559      18534.602    
    294000   0.95758816     0.0023323615   0.0014679776   20.520514      19.098496      1.4220184     -1.4229326      18438.901    
    295000   1.0450562      0.0023323615   0.00033115715  20.729539      19.177631      1.5519085     -1.2822586      18501.585    
    296000   1.0532264      0.0023323615  -0.002057319    20.959828      19.395787      1.5640412     -1.1325878      18552.547    
    297000   1.0264922      0.0023323615   0.0047701904   20.84887       19.324529      1.5243409     -1.2237354      18449.447    
    298000   1.0146121      0.0023323615  -0.0053038803   20.801265      19.294566      1.506699      -1.2693191      18560.72     
    299000   0.95723424     0.0023323615   0.0042211299   20.454985      19.033492      1.4214928     -1.3558771      18702.694    
    300000   0.839251       0.0023323615  -0.0015545784   20.780301      19.534013      1.2462877     -1.058173       18484.502    
    301000   1.0862827      0.0023323615   1.866065e-05   20.876523      19.263393      1.6131298     -1.20536        18584.487    
    302000   0.98959315     0.0023323615  -0.001464258    20.647568      19.178022      1.4695458     -1.2240981      18478.647    
    303000   1.1607304      0.0023323615   0.00046005885  20.736476      19.012792      1.7236847     -1.4462884      18536.874    
    304000   0.91065225     0.0023323615  -0.00053873108  20.5242        19.171882      1.3523186     -1.3781249      18307.297    
    305000   1.0933081      0.0023323615   0.0012757915   20.766372      19.142809      1.6235625     -1.4500028      18246.061    
    306000   0.99313688     0.0023323615   0.00057117192  20.831802      19.356994      1.4748083     -1.2952547      18215.848    
    307000   0.98619725     0.0023323615   0.00038105987  20.744356      19.279853      1.4645029     -1.2812229      18459.529    
    308000   1.0808147      0.0023323615  -0.00020402461  20.814173      19.209164      1.6050098     -1.3320702      18373.356    
    309000   0.90288212     0.0023323615  -0.0038174547   20.665415      19.324635      1.3407799     -1.2492456      18328.554    
    310000   1.0858258      0.0023323615   0.0010693606   21.195009      19.582557      1.6124512     -1.0026062      18693.051    
    311000   1.0385645      0.0023323615  -0.0010521823   20.775039      19.232771      1.5422683     -1.1945938      18763.138    
    312000   0.97019208     0.0023323615   0.0028320062   20.794651      19.353915      1.4407352     -1.1094733      18415.655    
    313000   1.1413923      0.0023323615   0.0027797936   21.154014      19.459046      1.6949676     -1.1091706      18529.619    
    314000   0.97854302     0.0023323615   0.0027262102   20.787531      19.334394      1.4531364     -1.156804       18510.349    
    315000   1.006015       0.0023323615  -0.00037269631  20.574276      19.080343      1.4939322     -1.3748249      18453.461    
    316000   1.0100262      0.0023323615  -0.00082967371  21.020276      19.520387      1.4998889     -0.98475025     18530.927    
    317000   0.97286276     0.0023323615  -0.002654351    20.664421      19.21972       1.4447012     -1.3034156      19095.343    
    318000   0.94580139     0.0023323615  -0.0022114192   20.569329      19.164814      1.4045151     -1.4230293      18537.659    
    319000   0.90723039     0.0023323615  -0.00013981624  20.54174       19.194503      1.3472371     -1.3880934      18352.393    
    320000   0.88207636     0.0023323615  -0.0013670656   20.404819      19.094936      1.3098834     -1.4578872      18378.681    
    321000   0.97502828     0.0023323615  -0.00092832154  20.642128      19.194211      1.447917      -1.4390417      18349.192    
    322000   0.95339912     0.0023323615  -0.0028338483   20.445317      19.029519      1.4157977     -1.5487773      18332.755    
    323000   0.91115515     0.0023323615  -0.00097036121  20.525411      19.172345      1.3530654     -1.4347092      18380.014    
    324000   0.89736033     0.0023323615   0.00017767057  20.380312      19.047732      1.3325801     -1.4872599      18230.477    
    325000   1.0248275      0.0023323615  -0.001721798    20.599419      19.07755       1.5218689     -1.5308129      18281.997    
    326000   0.95736756     0.0023323615  -0.00049707944  20.671697      19.250007      1.4216908     -1.3142206      18254.8      
    327000   0.86691578     0.0023323615  -0.0019387915   20.750362      19.462992      1.2873699     -1.1294805      18315.696    
    328000   1.0480206      0.0023323615   0.00093499974  20.836681      19.280371      1.5563106     -1.0971368      18401.494    
    329000   0.98846713     0.0023323615   0.0020737282   20.648267      19.180393      1.4678737     -1.2866555      18324.216    
    330000   1.019725       0.0023323615  -0.0028340688   20.581788      19.067496      1.5142916     -1.4544119      18358.054    
    331000   1.0532902      0.0023323615   0.0047306402   20.757622      19.193486      1.564136      -1.3249152      18441.967    
    332000   1.0604704      0.0023323615  -0.00034645369  20.550192      18.975393      1.5747985     -1.5868893      18475.178    
    333000   0.89845852     0.0023323615  -0.0025090081   20.672692      19.338481      1.3342109     -1.2097973      18331.327    
    334000   0.98129493     0.0023323615  -0.003919142    20.654876      19.197653      1.457223      -1.2618503      18483.978    
    335000   0.87598275     0.0023323615  -0.0014107136   20.727165      19.426331      1.3008344     -1.0953857      18596.55     
    336000   0.94338842     0.0023323615   0.0015071602   20.85566       19.454728      1.4009318     -1.1647677      18868.258    
    337000   0.94872004     0.0023323615  -0.0037175894   20.630068      19.221218      1.4088493     -1.383655       18544.109    
    338000   0.95497842     0.0023323615   0.00082983463  20.384439      18.966297      1.418143      -1.4441698      18311.479    
    339000   0.97261362     0.0023323615   0.0011480594   20.518507      19.074176      1.4443312     -1.5122719      18411.406    
    340000   0.95004471     0.0023323615   0.00078344136  20.382122      18.971305      1.4108164     -1.5584032      18243.316    
    341000   0.93941346     0.0023323615  -0.0019829632   20.664517      19.269488      1.395029      -1.3231217      18271.214    
    342000   1.0284992      0.0023323615   0.0019208355   20.591433      19.064112      1.5273213     -1.5385785      18229.315    
    343000   0.94680989     0.0023323615   0.003228711    20.589228      19.183215      1.4060127     -1.3378518      18324.677    
    344000   0.95248147     0.0023323615   5.3430091e-05  20.779456      19.365021      1.414435      -1.2052449      18425.776    
    345000   0.89431653     0.0023323615  -0.00079554379  20.721319      19.393259      1.32806       -1.2039359      18635.862    
    346000   0.99961963     0.0023323615   0.0021566499   20.890589      19.406154      1.4844351     -1.0526275      18568.994    
    347000   1.1876375      0.0023323615   0.0027750118   20.938804      19.175163      1.7636416     -1.3751049      18627.515    
    348000   1.0224047      0.0023323615  -0.0020718779   20.567547      19.049276      1.518271      -1.5192394      18538.623    
    349000   1.0168686      0.0023323615   0.00086738032  20.514953      19.004904      1.5100499     -1.4552511      18526.387    
    350000   1.0019311      0.0023323615  -0.00021847151  20.719588      19.23172       1.4878677     -1.2291892      18533.263    
    351000   0.97530426     0.0023323615  -0.0013835114   20.723953      19.275626      1.4483268     -1.1720952      18535.263    
    352000   1.0171685      0.0023323615   0.00051456848  20.74024       19.229745      1.5104952     -1.2442173      18713.073    
    353000   1.0319307      0.0023323615   6.4640341e-06  20.87867       19.346253      1.5324171     -1.1988303      18753.07     
    354000   1.2257351      0.0023323615  -0.00016895578  20.80578       18.985563      1.8202166     -1.5700091      18418.071    
    355000   1.0637033      0.0023323615   0.00029622686  20.518557      18.938958      1.5795994     -1.5401573      18367.571    
    356000   1.0302174      0.0023323615  -0.00015269493  20.63268       19.102807      1.5298728     -1.5482382      18410.964    
    357000   0.93498816     0.0023323615  -0.00030300156  20.563209      19.174752      1.3884574     -1.3990808      18405.607    
    358000   1.0288958      0.0023323615   0.001199892    20.642018      19.114108      1.5279102     -1.4747595      18552.844    
    359000   1.1398814      0.0023323615   0.0046284646   20.815495      19.122771      1.6927238     -1.4380182      18452.813    
    360000   1.0149003      0.0023323615   0.0024740361   20.469919      18.962792      1.507127      -1.5766633      18347.606    
    361000   0.95903941     0.0023323615   0.0005914672   20.405675      18.981502      1.4241735     -1.4949155      18478.941    
    362000   1.0228488      0.0023323615   0.00076628103  20.42783       18.9089        1.5189305     -1.6398408      18469.001    
    363000   1.1542972      0.0023323615   0.00066153177  20.835566      19.121435      1.7141313     -1.349106       18726.931    
    364000   1.1688336      0.0023323615  -0.0036705792   21.161585      19.425867      1.735718      -1.2178843      18613.891    
    365000   1.1848622      0.0023323615  -3.4810143e-05  20.971882      19.212362      1.7595204     -1.3848285      18554.631    
    366000   0.98180305     0.0023323615   0.00046188901  20.98235       19.524373      1.4579775     -1.1158613      18836.418    
    367000   0.89925471     0.0023323615   0.00063864581  20.672247      19.336854      1.3353932     -1.1640287      18757.429    
    368000   1.0637174      0.0023323615   0.0015856834   20.87319       19.29357       1.5796203     -1.3163832      18632.213    
    369000   1.007753       0.0023323615   0.00031958675  20.726255      19.229741      1.4965131     -1.3631499      18714.656    
    370000   1.0385734      0.0023323615   0.00087927235  20.44708       18.904799      1.5422816     -1.5871088      18536.901    
    371000   1.0055782      0.0023323615  -0.0044423046   20.564519      19.071235      1.4932836     -1.4914053      18528.457    
    372000   0.90734435     0.0023323615  -0.0054045056   20.456251      19.108845      1.3474064     -1.4805644      18530.352    
    373000   0.9620201      0.0023323615  -0.0013792263   20.408735      18.980135      1.4285998     -1.535576       18543.958    
    374000   0.85773633     0.0023323615   0.0035698515   20.538696      19.264957      1.2737384     -1.3029113      18469.78     
    375000   1.0464558      0.0023323615  -0.0012522925   20.981601      19.427614      1.5539868     -1.1588267      18781.179    
    376000   1.0514537      0.0023323615   0.0022667803   20.69188       19.130471      1.5614087     -1.3769705      18609.153    
    377000   1.1367417      0.0023323615  -0.0065756578   20.945605      19.257544      1.6880615     -1.289511       18546.012    
    378000   1.1065002      0.0023323615  -0.0027806307   20.92961       19.286458      1.6431528     -1.300861       18608.089    
    379000   0.9727286      0.0023323615  -0.0013717577   20.532842      19.088341      1.444502      -1.475699       18592.369    
    380000   0.98486652     0.0023323615   0.0010701115   20.413046      18.950519      1.4625268     -1.4269503      18359.104    
    381000   0.95547918     0.0023323615  -0.0028623588   20.479777      19.060891      1.4188866     -1.3746186      18618.487    
    382000   0.92935121     0.0023323615   0.00057509461  20.390387      19.0103        1.3800865     -1.4756187      18472.74     
    383000   0.96622614     0.0023323615   2.6660734e-05  20.564846      19.13          1.4348458     -1.3824637      18493.937    
    384000   0.97507906     0.0023323615  -0.0011495073   20.529474      19.081482      1.4479924     -1.4104822      18713.631    
    385000   1.0818286      0.0023323615  -0.0058908994   20.889484      19.282969      1.6065154     -1.3604476      18604.582    
    386000   1.0132713      0.0023323615  -0.000654357    20.701735      19.197027      1.5047078     -1.2733474      18502.981    
    387000   0.91992865     0.0023323615  -0.00084786949  20.778808      19.412714      1.366094      -1.3220527      18462.654    
    388000   0.9655627      0.0023323615  -0.00082178581  20.504533      19.070672      1.4338606     -1.4181496      18567.536    
    389000   0.89630541     0.0023323615  -0.0011300613   20.503656      19.172642      1.3310135     -1.3773093      18558.418    
    390000   0.98468147     0.0023323615   0.0015211514   20.580386      19.118134      1.462252      -1.3741532      18708.857    
    391000   0.93295318     0.0023323615  -0.0012869797   20.644043      19.258608      1.3854355     -1.2694176      18602.404    
    392000   1.0951506      0.0023323615   0.0024196966   20.957985      19.331687      1.6262986     -1.1469247      18729.876    
    393000   1.0720638      0.0023323615   0.0017394213   20.718066      19.126051      1.5920147     -1.4032282      18722.905    
    394000   0.97466619     0.0023323615  -0.001882383    20.53826       19.090881      1.4473793     -1.445          18608.137    
    395000   1.0606123      0.0023323615   0.00096010177  20.615004      19.039995      1.5750093     -1.4567204      18567.101    
    396000   0.96152713     0.0023323615  -0.00017149331  20.573533      19.145665      1.4278678     -1.3550672      18506.693    
    397000   0.78227615     0.0023323615  -0.0028920635   20.145623      18.983943      1.1616801     -1.4057066      18630.741    
    398000   0.8955043      0.0023323615  -0.00050336781  20.469485      19.139661      1.3298239     -1.4978278      18435.009    
    399000   0.89263466     0.0023323615   0.0050729081   20.369295      19.043733      1.3255625     -1.528644       18399.15     
    400000   0.90355493     0.0023323615  -0.0036488119   20.413849      19.07207       1.3417791     -1.3702411      18560.886    
    401000   0.87395387     0.0023323615  -0.00089181377  20.385391      19.087569      1.2978215     -1.5146417      18428.068    
    402000   1.0085127      0.0023323615   5.4140731e-05  20.467602      18.969961      1.4976414     -1.4418591      18428.12     
    403000   0.95862581     0.0023323615  -0.0024670782   20.513048      19.089489      1.4235593     -1.338646       18476.197    
    404000   1.109592       0.0023323615   0.0021307885   20.867849      19.220105      1.6477442     -1.2792397      18638.754    
    405000   1.0675509      0.0023323615   0.00075230994  20.790896      19.205582      1.585313      -1.2326041      18638.614    
    406000   1.0625124      0.0023323615  -0.0062761843   20.963265      19.385434      1.577831      -1.1695592      18650.289    
    407000   1.0421514      0.0023323615   0.00014475119  21.017115      19.46952       1.5475948     -1.074323       18726.306    
    408000   1.0799427      0.0023323615   0.002214753    20.672576      19.068861      1.6037149     -1.3040285      18751.094    
    409000   0.97859889     0.0023323615   0.0014806074   20.495319      19.0421        1.4532194     -1.4034073      18641.737    
    410000   0.92694348     0.0023323615   0.0044492037   20.59696       19.220449      1.3765111     -1.3983288      18368.25     
[...]
    861000   1.122729       0.0023323615   0.0020332698   20.607412      18.94016       1.6672526     -1.5362161      18662.082    
    862000   0.98592884     0.0023323615   0.0016755527   20.746644      19.28254       1.4641043     -1.2912949      18651.641    
    863000   0.94743007     0.0023323615  -0.0015510362   20.569264      19.16233       1.4069337     -1.3774669      18734.453    
    864000   1.1349549      0.0023323615   0.00029993721  20.981814      19.296406      1.685408      -1.1948144      18753.951    
    865000   0.89773174     0.0023323615   0.00033975126  20.575671      19.242539      1.3331316     -1.3165703      18647.159    
    866000   0.9911621      0.0023323615   0.00040181236  20.566693      19.094817      1.4718757     -1.3524842      18733.486    
    867000   1.1435974      0.0023323615   0.0041904365   21.086226      19.387984      1.6982421     -1.1203405      18760.373    
    868000   1.0037664      0.0023323615  -0.0021158411   20.493736      19.003142      1.4905931     -1.3782526      18653.666    
    869000   0.91992235     0.0023323615   0.0013092625   20.500708      19.134623      1.3660847     -1.4422969      18446.821    
    870000   0.94948747     0.0023323615   0.00084826484  20.609507      19.199518      1.4099889     -1.2761142      18580.494    
    871000   0.77506318     0.0023323615   0.00072705047  20.323499      19.17253       1.1509688     -1.4154792      18465.007    
    872000   0.82227604     0.0023323615   0.0019886235   20.459982      19.238902      1.2210799     -1.2468791      18534.815    
    873000   0.92448987     0.0023323615  -5.8491566e-05  20.416577      19.043709      1.3728674     -1.4227844      18659.779    
    874000   0.86487746     0.0023323615   0.0027971777   20.551617      19.267274      1.284343      -1.3074089      18589.066    
    875000   1.0422311      0.0023323615   0.0011087719   20.49705       18.949337      1.5477132     -1.4530969      18567.564    
    876000   1.037989       0.0023323615   0.001262034    20.578512      19.037099      1.5414136     -1.4612278      18592.511    
    877000   1.0515275      0.0023323615  -0.00093432665  20.729992      19.168473      1.5615183     -1.334368       18695.709    
    878000   0.91174068     0.0023323615   0.0016510276   20.411473      19.057538      1.3539349     -1.3496049      18736.837    
    879000   0.99526167     0.0023323615  -0.0040663762   20.22336       18.745396      1.4779636     -1.7022724      18635.803    
    880000   1.0708498      0.0023323615  -0.0009355193   20.495105      18.904893      1.5902119     -1.5893548      18533.838    
    881000   1.034534       0.0023323615   0.00014164195  20.606415      19.070132      1.5362829     -1.4338112      18593.328    
    882000   0.93561742     0.0023323615   0.00047722658  20.783406      19.394014      1.3893919     -1.2238649      18628.836    
    883000   1.0064435      0.0023323615   0.0024955004   20.523121      19.028552      1.4945686     -1.3320275      18795.959    
    884000   1.1186439      0.0023323615  -0.00016372598  20.932625      19.271439      1.6611863     -1.2970508      18565.278    
    885000   0.9694111      0.0023323615  -0.0011814973   20.94907       19.509494      1.4395755     -1.0954149      18796.837    
    886000   0.96968932     0.0023323615  -0.0012601753   20.860852      19.420863      1.4399886     -1.2253157      18820.573    
    887000   0.89843538     0.0023323615  -0.0011670456   20.490199      19.156022      1.3341765     -1.3175103      18549.855    
    888000   0.93720955     0.0023323615  -0.0017154991   20.91748       19.525724      1.3917562     -1.1085203      18629.239    
    889000   0.9386593      0.0023323615  -0.0015162231   20.681853      19.287944      1.3939091     -1.2534869      18695.264    
    890000   1.0539332      0.0023323615  -0.001972232    20.6159        19.050809      1.5650907     -1.4605749      18608.165    
    891000   1.0305359      0.0023323615  -0.0045355283   20.816497      19.286151      1.5303459     -1.2362262      18560.921    
    892000   1.0292728      0.0023323615   0.0019287684   20.767924      19.239454      1.5284701     -1.1809909      18666.179    
    893000   0.86230518     0.0023323615  -0.0022575811   20.649397      19.368874      1.2805232     -1.2850806      18715.224    
    894000   1.0170103      0.0023323615  -0.00016656187  20.608078      19.097818      1.5102603     -1.4850045      18644.495    
    895000   0.89203786     0.0023323615   0.0034133631   20.91639       19.591714      1.3246762     -1.0308515      18652.54     
    896000   0.96427431     0.0023323615   0.00094655829  20.263071      18.831123      1.4319474     -1.7193379      18665.47     
    897000   0.98694262     0.0023323615  -0.00067304096  20.533875      19.068265      1.4656098     -1.5635626      18410.964    
    898000   1.0659024      0.0023323615  -0.0016932856   20.619653      19.036788      1.582865      -1.4334046      18426.273    
    899000   0.9900215      0.0023323615   0.00054774355  20.498751      19.028569      1.4701819     -1.4980817      18494.674    
    900000   1.0345852      0.0023323615   0.0050994732   20.91294       19.376581      1.536359      -1.1299925      18537.025    
    901000   0.95914898     0.0023323615   0.0014457819   20.970443      19.546107      1.4243362     -1.1216935      18688.603    
    902000   1.0424975      0.0023323615  -0.0023637546   20.793188      19.245079      1.5481087     -1.2308036      18654.761    
    903000   0.83051151     0.0023323615   0.0044374933   20.423395      19.190085      1.2333096     -1.2313591      18859.171    
    904000   0.94130167     0.0023323615  -0.0049386366   20.609878      19.212045      1.397833      -1.4330644      18456.491    
    905000   0.95817673     0.0023323615  -0.0008485053   20.611677      19.188785      1.4228924     -1.3770264      18419.784    
    906000   0.96906402     0.0023323615   0.0017563711   20.641401      19.202341      1.4390601     -1.2215435      18437.702    
    907000   0.91636516     0.0023323615   0.0028412224   20.697709      19.336907      1.3608023     -1.2256968      18458.802    
    908000   1.0190627      0.0023323615   0.0022298252   20.661272      19.147964      1.5133081     -1.2623512      18639.707    
    909000   0.97232112     0.0023323615  -0.0017803279   20.589372      19.145475      1.4438969     -1.3078712      18534.836    
    910000   1.0221584      0.0023323615   0.0008066015   20.895207      19.377301      1.5179053     -1.0868879      18609.885    
    911000   1.0779774      0.0023323615  -0.00052282007  20.908986      19.308189      1.6007965     -1.1811155      18729.932    
    912000   0.86817684     0.0023323615   0.0023709883   20.445883      19.15664       1.2892426     -1.3256925      18643.287    
    913000   0.89298079     0.0023323615  -0.00044862123  20.615095      19.289018      1.3260765     -1.2504476      18336.176    
    914000   0.85983478     0.0023323615  -0.00083820918  20.449484      19.172629      1.2768546     -1.361582       18582.663    
    915000   0.81810062     0.0023323615  -0.00091273991  20.541666      19.326787      1.2148794     -1.2740372      18685.878    
    916000   1.0515267      0.0023323615   0.0012556945   20.773286      19.211769      1.5615172     -1.3458591      18176.853    
    917000   0.92293474     0.0023323615   0.0032438716   20.26901       18.898452      1.3705581     -1.6485096      18469.534    
    918000   0.87850737     0.0023323615  -0.0037201612   20.520271      19.215688      1.3045834     -1.3375525      18573.161    
    919000   1.0225302      0.0023323615   0.0016233981   20.835126      19.316668      1.5184574     -1.2270576      18697.534    
    920000   0.99780924     0.0023323615   0.0031377416   20.524917      19.04317       1.4817467     -1.4742307      18802.095    
    921000   0.93789672     0.0023323615   0.00075594185  20.490002      19.097225      1.3927766     -1.3274689      18601.364    
    922000   0.86349667     0.0023323615  -0.0016211757   20.731642      19.44935       1.2822926     -1.1505124      18544.857    
    923000   1.0346679      0.0023323615   0.00035491522  20.778317      19.241836      1.5364818     -1.4015665      18537.542    
    924000   0.76629208     0.0023323615   7.8208663e-05  20.155363      19.017419      1.1379437     -1.4363341      18467.559    
    925000   1.0157855      0.0023323615  -0.00062856548  20.619152      19.110711      1.5084415     -1.4891726      18470.822    
    926000   1.1972434      0.0023323615   7.5421848e-05  21.04913       19.271224      1.7779064     -1.2608909      18518.186    
    927000   0.90691135     0.0023323615  -0.0010318618   20.518971      19.172207      1.3467634     -1.4427758      18447.871    
    928000   1.040545       0.0023323615   0.0017093096   20.620106      19.074897      1.5452093     -1.4372923      18356.653    
    929000   0.88089149     0.0023323615  -0.0022689348   20.306695      18.998571      1.3081239     -1.5115174      18378.491    
    930000   1.0008219      0.0023323615  -0.00030487491  20.714402      19.228182      1.4862205     -1.2218073      18527.707    
    931000   1.0461948      0.0023323615  -0.0017620275   20.924435      19.370836      1.5535993     -1.2909241      18486.604    
    932000   1.0299044      0.0023323615  -0.0032816819   21.027466      19.498058      1.5294081     -1.156279       18634.626    
    933000   1.0832433      0.0023323615   0.0030402312   20.869967      19.261351      1.6086163     -1.2287527      18684.73     
    934000   1.1007378      0.0023323615  -0.0043631796   20.812033      19.177437      1.6345956     -1.4027487      18616.237    
    935000   1.0505362      0.0023323615   0.0006155424   20.898606      19.33856       1.5600462     -1.2466635      18524.767    
    936000   0.97476485     0.0023323615   0.003275684    20.458911      19.011386      1.4475258     -1.5123867      18606.836    
    937000   0.95947306     0.0023323615   1.0599869e-05  20.665454      19.240636      1.4248175     -1.3518202      18627.501    
    938000   0.91049117     0.0023323615  -0.00029868341  20.313396      18.961316      1.3520794     -1.5060318      18581.127    
    939000   1.1019285      0.0023323615   0.0017882749   20.986041      19.349677      1.6363638     -1.2364841      18527.236    
    940000   0.90056092     0.0023323615  -0.0024326818   20.586047      19.248714      1.337333      -1.2029961      18610.715    
    941000   0.94676908     0.0023323615   0.00024133784  20.388981      18.983029      1.4059521     -1.5560528      18413.576    
    942000   1.1268098      0.0023323615  -0.0011257516   20.576723      18.903411      1.6733126     -1.6085711      18420.444    
    943000   1.0574         0.0023323615   0.002748942    20.81125       19.241011      1.570239      -1.3344847      18590.389    
    944000   1.0006353      0.0023323615   0.0024893412   20.777482      19.291539      1.4859434     -1.1498526      18710.604    
    945000   0.96627725     0.0023323615   0.0050863849   20.666782      19.231861      1.4349217     -1.3208737      18494.338    
    946000   0.98833236     0.0023323615   0.0037158384   20.600442      19.132768      1.4676736     -1.3135934      18652.854    
    947000   1.0369166      0.0023323615   0.000378858    20.886022      19.346201      1.5398211     -1.1763093      18756.594    
    948000   1.11151        0.0023323615   0.0049760098   20.596008      18.945416      1.6505924     -1.5279473      18774.333    
    949000   1.1951855      0.0023323615  -0.0018857939   20.775592      19.000742      1.7748504     -1.4528445      18598.456    
    950000   1.047397       0.0023323615  -0.0003443102   20.674199      19.118814      1.5553846     -1.3058984      18581.798    
    951000   0.99678175     0.0023323615   0.0023739822   20.419263      18.939042      1.4802209     -1.5574011      18601.122    
    952000   0.97354754     0.0023323615  -0.0019641477   20.700601      19.254883      1.4457181     -1.2913491      18402.383    
    953000   0.95359419     0.0023323615  -0.0027558486   20.67859       19.262503      1.4160874     -1.3529638      18568.545    
    954000   1.0903312      0.0023323615   0.00063468627  20.939379      19.320237      1.6191418     -1.3044999      18624.383    
    955000   0.95680904     0.0023323615   0.00025211056  20.479349      19.058488      1.4208614     -1.467769       18635.291    
    956000   1.0762779      0.0023323615   0.0019638512   20.80263       19.204357      1.5982727     -1.216165       18733.978    
    957000   1.1788148      0.0023323615   0.0017984769   20.947436      19.196896      1.75054       -1.3433026      18602.46     
    958000   0.86362102     0.0023323615   0.0013505949   20.358445      19.075967      1.2824772     -1.3953682      18520.237    
    959000   0.97482966     0.0023323615   0.0044634958   20.753369      19.305747      1.447622      -1.2435292      18516.179    
    960000   0.90893486     0.0023323615  -0.0017566417   20.370284      19.020516      1.3497683     -1.4598546      18488.573    
    961000   0.95842773     0.0023323615   0.0008429059   20.739589      19.316324      1.4232652     -1.2336362      18548.913    
    962000   1.0184581      0.0023323615  -0.00070721844  20.728367      19.215956      1.5124102     -1.3007192      18689.821    
    963000   0.93089555     0.0023323615   0.00075104522  20.905597      19.523217      1.3823799     -1.0072521      18704.25     
    964000   1.1296961      0.0023323615   0.003563873    20.854815      19.177216      1.6775987     -1.3271396      18748.804    
    965000   0.97694438     0.0023323615  -0.0024701824   20.452765      19.002003      1.4507624     -1.5774856      18230.324    
    966000   0.92574598     0.0023323615   4.4392585e-06  20.613642      19.23891       1.3747328     -1.2534101      18510.403    
    967000   0.85777532     0.0023323615   0.0063952762   20.7099        19.436104      1.2737964     -1.3637707      18515.475    
    968000   0.94993688     0.0023323615   0.0021259331   20.621096      19.21044       1.4106563     -1.2991362      18530.421    
    969000   1.0012262      0.0023323615  -0.0009553132   21.023408      19.536587      1.4868209     -1.0716127      18647.152    
    970000   1.0218785      0.0023323615   0.00068621722  20.723389      19.2059        1.5174895     -1.2507129      18903.12     
    971000   1.0197234      0.0023323615   0.00043062107  20.789789      19.2755        1.5142893     -1.2433869      19475.056    
    972000   0.85443445     0.0023323615   0.0010255032   20.351002      19.082166      1.2688352     -1.5345843      18926.781    
    973000   0.88449101     0.0023323615  -0.0044468667   20.632633      19.319164      1.3134691     -1.2667904      18759.21     
    974000   0.97763396     0.0023323615  -0.0023999545   20.818846      19.36706       1.4517864     -1.2248274      18836.852    
    975000   1.0313802      0.0023323615  -0.0033873585   20.926954      19.395355      1.5315997     -1.3731115      18653.68     
    976000   1.0060123      0.0023323615   0.0050379179   20.617317      19.123389      1.4939283     -1.518119       18414.391    
    977000   1.0330662      0.0023323615  -0.0028401324   20.750195      19.216091      1.5341033     -1.2151333      18473.359    
    978000   1.0735467      0.0023323615  -0.00063840901  20.719802      19.125585      1.5942169     -1.4331417      18558.822    
    979000   1.0062781      0.0023323615   0.0031074901   20.5835        19.089177      1.494323      -1.412851       18399.53     
    980000   1.044884       0.0023323615   0.001397853    20.607991      19.056338      1.5516528     -1.3913382      18399.388    
    981000   0.97089577     0.0023323615  -0.0012957877   20.566794      19.125014      1.4417802     -1.401073       18432.475    
    982000   0.96782026     0.0023323615  -0.00088553106  20.766805      19.329592      1.4372131     -1.2652546      18598.581    
    983000   0.94483622     0.0023323615  -0.00033390322  20.734298      19.331216      1.4030818     -1.2525203      18643.868    
    984000   0.99022083     0.0023323615   0.0002972423   20.686983      19.216505      1.4704779     -1.3538554      18591.967    
    985000   0.99142598     0.0023323615  -0.0019161196   20.797664      19.325396      1.4722676     -1.260058       18628.436    
    986000   1.0282817      0.0023323615  -0.0035019194   20.995497      19.468499      1.5269984     -1.1845385      18331.647    
    987000   1.0438761      0.0023323615  -0.0030090584   20.814034      19.263878      1.550156      -1.2388203      18477.169    
    988000   0.96174165     0.0023323615  -0.0016437615   20.485605      19.057419      1.4281864     -1.380706       18437.944    
    989000   1.020707       0.0023323615  -0.0013897561   20.474114      18.958365      1.5157499     -1.5074088      18414.87     
    990000   1.0170523      0.0023323615  -0.0065534674   20.376045      18.865722      1.5103226     -1.667737       18343.3      
    991000   0.88915008     0.0023323615  -0.0016758084   20.446679      19.126291      1.3203879     -1.4014934      18469.291    
    992000   1.0797166      0.0023323615   0.0064926956   20.664159      19.06078       1.6033792     -1.4175158      18542.442    
    993000   1.0051962      0.0023323615  -0.0011876749   20.335385      18.842669      1.4927164     -1.4998057      18483.403    
    994000   0.96406762     0.0023323615  -0.0070448142   20.596278      19.164638      1.4316404     -1.314047       18477.62     
    995000   0.95002858     0.0023323615  -0.0012817273   20.527126      19.116333      1.4107924     -1.444671       18465.522    
    996000   0.91574164     0.0023323615  -0.0030162829   20.630254      19.270377      1.3598763     -1.3033409      19723.02     
    997000   0.93575787     0.0023323615   0.0012698723   20.544062      19.154462      1.3896004     -1.212992       19924.914    
    998000   1.1364495      0.0023323615  -0.0038648701   20.937735      19.250108      1.6876275     -1.2469236      19194.402    
    999000   0.94078028     0.0023323615  -0.000535476    20.564379      19.16732       1.3970587     -1.3955917      20008.982    
   1000000   0.94829437     0.0023323615   0.0003269856   20.502018      19.093801      1.4082171     -1.4452192      19826.727    
Loop time of 53.8743 on 1 procs for 1000000 steps with 100 atoms

Performance: 8018665.621 tau/day, 18561.726 timesteps/s
99.5% CPU use with 1 MPI tasks x 1 OpenMP threads

MPI task timing breakdown:
Section |  min time  |  avg time  |  max time  |%varavg| %total
---------------------------------------------------------------
Pair    | 44.897     | 44.897     | 44.897     |   0.0 | 83.34
Bond    | 1.2615     | 1.2615     | 1.2615     |   0.0 |  2.34
Neigh   | 3.8007     | 3.8007     | 3.8007     |   0.0 |  7.05
Comm    | 1.3973     | 1.3973     | 1.3973     |   0.0 |  2.59
Output  | 0.21504    | 0.21504    | 0.21504    |   0.0 |  0.40
Modify  | 1.949      | 1.949      | 1.949      |   0.0 |  3.62
Other   |            | 0.3538     |            |       |  0.66

Nlocal:            100 ave         100 max         100 min
Histogram: 1 0 0 0 0 0 0 0 0 0
Nghost:            288 ave         288 max         288 min
Histogram: 1 0 0 0 0 0 0 0 0 0
Neighs:           4851 ave        4851 max        4851 min
Histogram: 1 0 0 0 0 0 0 0 0 0

Total # of neighbors = 4851
Ave neighs/atom = 48.51
Ave special neighs/atom = 1.98
Neighbor list builds = 97911
Dangerous builds = 80190

write_data      ${outputfile_assembled} nofix nocoeff
write_data      7_assembled.data nofix nocoeff
System init for write_data ...
Generated 0 of 6 mixed pair_coeff terms from geometric mixing rule

Total wall time: 0:00:55
