LAMMPS (23 Jun 2022 - Update 1)
OMP_NUM_THREADS environment is not set. Defaulting to 1 thread. (src/comm.cpp:98)
  using 1 OpenMP thread(s) per MPI task


variable        runtime equal 1000000
variable		subsample_rate equal 1000

variable		outputfile_created string '3_created.data'
variable		outputfile_relaxed string '5_relaxed.data'
variable		outputfile_selfasb string '6_a_self_assemble.lammpstrj'
variable		outputfile_trajlin string '6_b_trajlin.data'
variable		outputfile_assembled string '7_assembled.data'

units           lj
atom_style      full
dimension       3
boundary        p p p
timestep        0.005

read_data       ${outputfile_created}
read_data       3_created.data
Reading data file ...
  orthogonal box = (0 0 0) to (35 35 35)
  1 by 1 by 1 MPI processor grid
  reading atoms ...
  100 atoms
  reading velocities ...
  100 velocities
  scanning bonds ...
  1 = max bonds/atom
  reading bonds ...
  99 bonds
Finding 1-2 1-3 1-4 neighbors ...
  special bond factors lj:    0        0        0       
  special bond factors coul:  0        0        0       
     2 = max # of 1-2 neighbors
     2 = max # of 1-3 neighbors
     4 = max # of 1-4 neighbors
     6 = max # of special neighbors
  special bonds CPU = 0.000 seconds
  read_data CPU = 0.008 seconds

bond_style      fene
bond_coeff      * 30.0 1.5 1.0 1.0
special_bonds   fene
Finding 1-2 1-3 1-4 neighbors ...
  special bond factors lj:    0        1        1       
  special bond factors coul:  0        1        1       
     2 = max # of 1-2 neighbors
     6 = max # of special neighbors
  special bonds CPU = 0.000 seconds

variable        Temp equal 1.0
variable        velSeed equal 926458

velocity        all create ${Temp} ${velSeed}
velocity        all create 1 ${velSeed}
velocity        all create 1 926458

### Output
thermo_style    custom step temp density press etotal pe ke epair spcpu
thermo          1000

###########################################################################
# Soft relaxation (to remove overlaps of particles)
######################################################################

pair_style      soft 1.0
pair_coeff      * * 0.0
variable        prefactor equal ramp(0,300)
fix             rampSoft all adapt 1 pair soft a * * v_prefactor

minimize        0.0 1.0e-8 1000 100000
WARNING: Using 'neigh_modify every 1 delay 0 check yes' setting during minimization (src/min.cpp:187)
Generated 0 of 6 mixed pair_coeff terms from geometric mixing rule
Neighbor list info ...
  update every 1 steps, delay 0 steps, check yes
  max neighbors/atom: 2000, page size: 100000
  master list distance cutoff = 1.3
  ghost atom cutoff = 1.3
  binsize = 0.65, bins = 54 54 54
  1 neighbor lists, perpetual/occasional/extra = 1 0 0
  (1) pair soft, perpetual
      attributes: half, newton on
      pair build: half/bin/newton
      stencil: half/bin/3d
      bin: standard
WARNING: Communication cutoff 1.3 is shorter than a bond length based estimate of 1.7550000000000001. This may lead to errors. (src/comm.cpp:727)
Per MPI rank memory allocation (min/avg/max) = 8.346 | 8.346 | 8.346 Mbytes
   Step          Temp         Density         Press          TotEng         PotEng         KinEng         E_pair         S/CPU     
         0   1              0.0023323615  -0.0039617958   21.524174      20.039174      1.485          0              0            
       362   1              0.0023323615   0.0023090379   21.485548      20.000548      1.485          0              61178.639    
Loop time of 0.0059354 on 1 procs for 362 steps with 100 atoms

99.9% CPU use with 1 MPI tasks x 1 OpenMP threads

Minimization stats:
  Stopping criterion = force tolerance
  Energy initial, next-to-last, final = 
      20.0391741078675   20.0005480767337   20.0005480767337
  Force two-norm initial, final = 11.878422 7.9509778e-09
  Force max component initial, final = 6.6117807 1.3572772e-09
  Final line search alpha, max atom move = 1 1.3572772e-09
  Iterations, force evaluations = 362 738

MPI task timing breakdown:
Section |  min time  |  avg time  |  max time  |%varavg| %total
---------------------------------------------------------------
Pair    | 0.00026453 | 0.00026453 | 0.00026453 |   0.0 |  4.46
Bond    | 0.0028339  | 0.0028339  | 0.0028339  |   0.0 | 47.75
Neigh   | 0.0015139  | 0.0015139  | 0.0015139  |   0.0 | 25.51
Comm    | 0.00027665 | 0.00027665 | 0.00027665 |   0.0 |  4.66
Output  | 0          | 0          | 0          |   0.0 |  0.00
Modify  | 0          | 0          | 0          |   0.0 |  0.00
Other   |            | 0.001046   |            |       | 17.63

Nlocal:            100 ave         100 max         100 min
Histogram: 1 0 0 0 0 0 0 0 0 0
Nghost:             20 ave          20 max          20 min
Histogram: 1 0 0 0 0 0 0 0 0 0
Neighs:              0 ave           0 max           0 min
Histogram: 1 0 0 0 0 0 0 0 0 0

Total # of neighbors = 0
Ave neighs/atom = 0
Ave special neighs/atom = 1.98
Neighbor list builds = 17
Dangerous builds = 0

fix             nvtSoft all nvt temp ${Temp} ${Temp} 0.5
fix             nvtSoft all nvt temp 1 ${Temp} 0.5
fix             nvtSoft all nvt temp 1 1 0.5
run             100000
Generated 0 of 6 mixed pair_coeff terms from geometric mixing rule
WARNING: Communication cutoff 1.3 is shorter than a bond length based estimate of 1.7550000000000001. This may lead to errors. (src/comm.cpp:727)
Per MPI rank memory allocation (min/avg/max) = 7.221 | 7.221 | 7.221 Mbytes
   Step          Temp         Density         Press          TotEng         PotEng         KinEng         E_pair         S/CPU     
       362   1              0.0023323615   0.0023090379   21.485548      20.000548      1.485          0              0            
      1000   0.90989032     0.0023323615  -0.0021940042   21.776974      20.425787      1.3511871      0.00036425437  66106.276    
      2000   0.86546688     0.0023323615   0.0034714157   21.677128      20.39191       1.2852183      0.0025814786   65292.32     
      3000   0.98199538     0.0023323615   0.0028144228   21.866132      20.407869      1.4582631      0.0011756043   62514.199    
      4000   1.004495       0.0023323615  -0.0014058211   21.945624      20.453949      1.4916751      0.011986179    62553.182    
      5000   1.1222705      0.0023323615   0.0044495116   21.986385      20.319813      1.6665718      0.0050317639   62981.081    
      6000   1.0538243      0.0023323615   0.0023957538   21.985713      20.420784      1.564929       0.012100514    63510.27     
      7000   1.0210598      0.0023323615  -0.00038820026  21.904665      20.388391      1.5162738      0              63390.317    
      8000   0.94819751     0.0023323615   0.0024943091   21.747889      20.339816      1.4080733      0              65089.725    
      9000   0.92364502     0.0023323615   0.0020053029   21.724166      20.352554      1.3716129      1.7780894e-05  64213.782    
     10000   0.86685188     0.0023323615   0.00078277366  21.644879      20.357604      1.287275       0.0098636418   64354.007    
     11000   1.0057103      0.0023323615   0.00010113276  21.8558        20.362321      1.4934798      0.020705341    64320.421    
     12000   0.97901664     0.0023323615  -0.0026996968   21.871206      20.417366      1.4538397      0.0052928539   63859.436    
     13000   0.97718436     0.0023323615  -6.1641422e-06  21.963706      20.512587      1.4511188      0.025022446    64260.084    
     14000   1.0530014      0.0023323615  -0.0009993112   21.947994      20.384287      1.5637071      0.0020860456   63218.51     
     15000   0.99094527     0.0023323615   0.0011068478   21.895146      20.423592      1.4715537      0.0015091113   64374.14     
     16000   0.91285091     0.0023323615  -0.00025424173  21.87524       20.519657      1.3555836      0.0047853639   63750.49     
     17000   0.82806978     0.0023323615  -0.00054698156  21.701984      20.472301      1.2296836      0              62850.371    
     18000   1.043278       0.0023323615  -6.6143919e-05  22.003299      20.454031      1.5492679      0.0034319132   62912.371    
     19000   1.0879249      0.0023323615  -0.0017804642   21.998985      20.383416      1.6155685      0.015376175    62878.956    
     20000   1.1144506      0.0023323615   0.0025198298   22.190904      20.535944      1.6549592      0              64167.875    
     21000   1.0427751      0.0023323615   0.0011345349   22.099492      20.550971      1.548521       0.00040047813  64905.057    
     22000   1.0586695      0.0023323615   0.0017882747   22.05673       20.484606      1.5721242      0              64298.791    
     23000   1.0058426      0.0023323615  -0.0055245362   21.954628      20.460951      1.4936763      0.0027619031   63580.135    
     24000   0.98273442     0.0023323615   0.0015147357   21.862067      20.402707      1.4593606      0              63696.714    
     25000   0.95835343     0.0023323615   0.0017808774   21.937761      20.514606      1.4231548      0.00020839942  63201.377    
     26000   0.93993778     0.0023323615  -0.0021777292   21.884849      20.489042      1.3958076      0.0088889834   64173.443    
     27000   0.9308188      0.0023323615  -0.00011239942  21.842252      20.459986      1.3822659      0.021612409    63058.676    
     28000   1.0149581      0.0023323615   0.0041996387   21.906846      20.399633      1.5072129      0.0064059022   63580.863    
     29000   0.92841138     0.0023323615  -2.5398808e-05  21.987185      20.608494      1.3786909      0.0046112484   63347.952    
     30000   1.021043       0.0023323615   0.001589158    22.097958      20.581709      1.5162489      0.016799508    63833.131    
     31000   1.0465985      0.0023323615  -0.0021744286   22.037917      20.483718      1.5541987      0.0057879149   63209.787    
     32000   0.98907108     0.0023323615  -0.0015558606   22.044089      20.575318      1.4687705      0.009448173    62619.545    
     33000   1.0918536      0.0023323615  -0.0025643847   22.039275      20.417873      1.6214025      0              63133.661    
     34000   0.99801543     0.0023323615   0.0016279766   21.932339      20.450286      1.4820529      0.017384617    64925.87     
     35000   1.0352271      0.0023323615  -0.0052971711   22.076004      20.538692      1.5373122      0.00010473809  64195.94     
     36000   1.1141579      0.0023323615  -0.00093279925  22.222491      20.567966      1.6545245      0.00033678641  65001.641    
     37000   1.0369415      0.0023323615   0.00013065175  22.217841      20.677983      1.5398581      0.013788831    63986.015    
     38000   1.0515596      0.0023323615   0.0021717558   22.070766      20.5092        1.561566       0.0067894678   64111.449    
     39000   1.0238495      0.0023323615   0.00026414509  22.040141      20.519725      1.5204165      0.00044464649  63529.354    
     40000   1.0749111      0.0023323615  -0.0026849368   22.039327      20.443084      1.596243       0.012651334    62055.766    
     41000   0.99070886     0.0023323615  -0.0030385564   22.03241       20.561207      1.4712027      0.00092855646  64900.288    
     42000   0.95315224     0.0023323615   0.0019788197   21.965263      20.549832      1.4154311      0.020233689    63723.625    
     43000   1.0644183      0.0023323615  -0.0011168725   22.287172      20.706511      1.5806611      0.039694129    63872.476    
     44000   1.0253747      0.0023323615  -0.006676522    22.066233      20.543552      1.5226814      0              62585.069    
     45000   0.94179556     0.0023323615  -0.0047206018   21.970644      20.572077      1.3985664      0.019869988    56830.391    
     46000   1.0083495      0.0023323615  -0.0017646918   21.972114      20.474715      1.497399       0.00026040605  36179.724    
     47000   0.98767959     0.0023323615  -0.00080218158  22.091674      20.62497       1.4667042      0.024266258    60297.12     
     48000   1.1473449      0.0023323615  -0.0025885687   22.080512      20.376705      1.7038072      0.00065962995  63305.078    
     49000   1.0679312      0.0023323615   0.0017688272   21.970482      20.384604      1.5858779      0.014142422    64147.381    
     50000   0.9581935      0.0023323615   0.0014398836   21.955202      20.532284      1.4229173      0.0055011948   50140.931    
     51000   1.0215759      0.0023323615  -0.00093292688  21.934681      20.41764       1.5170402      0              57090.275    
     52000   0.98079591     0.0023323615   0.0040701936   21.977374      20.520892      1.4564819      0.0020862422   61945.583    
     53000   1.0090927      0.0023323615   0.0013324753   22.095438      20.596935      1.4985027      0              52056.118    
     54000   0.97519627     0.0023323615   0.0013260734   22.070151      20.621984      1.4481665      0.026885444    63774.119    
     55000   1.1805087      0.0023323615  -0.001586238    22.424088      20.671033      1.7530554      0.024690954    64443.258    
     56000   0.98387121     0.0023323615   0.0037155145   22.104425      20.643376      1.4610487      0.01435493     64159.131    
     57000   1.0723812      0.0023323615  -0.0037916262   22.122726      20.53024       1.592486       0.013635549    64551.866    
     58000   1.0152349      0.0023323615   0.00021908047  22.082827      20.575203      1.5076238      0.00077375639  64062.857    
     59000   1.1424502      0.0023323615  -0.0052108657   22.30072       20.604182      1.6965385      0.013308184    65149.334    
     60000   1.0359703      0.0023323615  -0.00097887545  22.188218      20.649802      1.538416       0.00011346294  63220.992    
     61000   1.1646839      0.0023323615  -0.002085017    22.239945      20.51039       1.7295556      0.012918477    65288.471    
     62000   1.101836       0.0023323615   0.0010338878   22.171386      20.53516       1.6362265      0.001396566    64548.699    
     63000   0.96616435     0.0023323615   0.00097550571  21.903821      20.469067      1.4347541      0.013027663    65671.425    
     64000   1.0068907      0.0023323615  -0.0020278726   22.061652      20.566419      1.4952327      0.013750276    64137.7      
     65000   0.98723233     0.0023323615   0.0022441476   22.031073      20.565033      1.46604        0.0066686189   64604.262    
     66000   1.0273881      0.0023323615  -0.0003515278   22.183579      20.657908      1.5256713      0              62977.587    
     67000   0.96528212     0.0023323615  -0.00014822656  21.9396        20.506156      1.4334439      0.010365557    64316.648    
     68000   1.069702       0.0023323615   9.4754668e-05  22.081119      20.492611      1.5885075      0.00049153926  62444.499    
     69000   1.1229502      0.0023323615   0.0011504079   22.200329      20.532748      1.6675811      0.0068454249   64706.542    
     70000   1.0062775      0.0023323615  -0.00085311964  22.094021      20.599699      1.4943221      0.013222355    63680.331    
     71000   1.0906935      0.0023323615   0.00015260357  22.145362      20.525682      1.6196798      0.018338513    63968.055    
     72000   1.010401       0.0023323615  -6.0487182e-06  22.154105      20.653659      1.5004455      0.0013793953   63278.752    
     73000   1.1177599      0.0023323615  -0.0034084797   22.254435      20.594562      1.6598735      0.00011231735  65567.76     
     74000   0.9768019      0.0023323615   0.00016143893  22.07312       20.622569      1.4505508      0.0084515956   63835.747    
     75000   1.1360996      0.0023323615   0.002159116    22.161595      20.474487      1.6871079      0.0089909162   64375.636    
     76000   0.97379329     0.0023323615  -0.00068458621  21.988928      20.542845      1.446083       0              63496.329    
     77000   0.94876793     0.0023323615  -0.0016073976   21.923496      20.514575      1.4089204      0.017745108    63524.745    
     78000   0.83947996     0.0023323615  -0.00062768559  21.726727      20.480099      1.2466277      0.0054510099   63880.436    
     79000   1.0090614      0.0023323615  -0.00080262643  22.068192      20.569736      1.4984562      0.00023011166  63716.065    
     80000   1.1217643      0.0023323615  -0.0038177864   22.367902      20.702082      1.66582        0.032902439    63701.993    
     81000   1.0240158      0.0023323615   0.00023547123  22.031597      20.510933      1.5206635      0.0068767308   63176.658    
     82000   1.003236       0.0023323615  -0.0022802982   21.894199      20.404393      1.4898055      0.019136282    62024.574    
     83000   1.0554159      0.0023323615   0.004011718    22.104562      20.537269      1.5672927      0.0080869707   62029.002    
     84000   0.83527346     0.0023323615  -0.0034122221   21.874648      20.634267      1.2403811      0.0030083664   63446.563    
     85000   1.036002       0.0023323615   0.0013573923   21.962923      20.42446       1.5384629      0.015709144    63850.001    
     86000   0.9432002      0.0023323615  -0.0032183248   21.913588      20.512936      1.4006523      0.013730309    64182.562    
     87000   0.95566008     0.0023323615  -0.00049614223  21.91653       20.497375      1.4191552      0.0035862035   63409.321    
     88000   0.93373351     0.0023323615  -0.00097093893  21.870485      20.483891      1.3865943      0.0018212145   63020.335    
     89000   0.9684944      0.0023323615  -0.00047342045  21.973429      20.535215      1.4382142      0.00087524744  63422.255    
     90000   0.98293324     0.0023323615  -0.0032204602   22.050919      20.591263      1.4596559      0.015353933    64614.719    
     91000   1.0832827      0.0023323615   0.0048517083   22.11977       20.511095      1.6086749      0.0052867789   65478.164    
     92000   0.85899662     0.0023323615  -0.0013049519   21.765697      20.490087      1.27561        0.0024124001   64990.683    
     93000   0.96176266     0.0023323615  -4.4223672e-05  21.874222      20.446004      1.4282176      0.0045653365   64770.913    
     94000   0.96019503     0.0023323615   0.00024459347  21.944954      20.519064      1.4258896      3.8053462e-05  64467.018    
     95000   0.94702149     0.0023323615  -0.0033658915   21.86315       20.456823      1.4063269      0              65235.734    
     96000   0.91119348     0.0023323615  -0.0013197298   21.825018      20.471896      1.3531223      0.00043282989  64207.589    
     97000   1.0016687      0.0023323615  -0.0019514304   22.013024      20.525546      1.487478       0.0048369955   63478.195    
     98000   1.02143        0.0023323615  -0.0057874974   22.177965      20.661142      1.5168235      0              62742.83     
     99000   1.032786       0.0023323615   0.0018228259   21.975336      20.441649      1.5336871      7.1595851e-05  65058.202    
    100000   1.0594928      0.0023323615   0.0036169719   22.011024      20.437677      1.5733468      0.00032948157  63516.091    
    100362   1.1904942      0.0023323615  -0.00089755607  22.316856      20.548972      1.7678839      0.00063845255  62330.593    
Loop time of 1.59087 on 1 procs for 100000 steps with 100 atoms

Performance: 27154954.418 tau/day, 62858.691 timesteps/s
100.0% CPU use with 1 MPI tasks x 1 OpenMP threads

MPI task timing breakdown:
Section |  min time  |  avg time  |  max time  |%varavg| %total
---------------------------------------------------------------
Pair    | 0.059243   | 0.059243   | 0.059243   |   0.0 |  3.72
Bond    | 0.14527    | 0.14527    | 0.14527    |   0.0 |  9.13
Neigh   | 0.912      | 0.912      | 0.912      |   0.0 | 57.33
Comm    | 0.079887   | 0.079887   | 0.079887   |   0.0 |  5.02
Output  | 0.0020865  | 0.0020865  | 0.0020865  |   0.0 |  0.13
Modify  | 0.35537    | 0.35537    | 0.35537    |   0.0 | 22.34
Other   |            | 0.03701    |            |       |  2.33

Nlocal:            100 ave         100 max         100 min
Histogram: 1 0 0 0 0 0 0 0 0 0
Nghost:             60 ave          60 max          60 min
Histogram: 1 0 0 0 0 0 0 0 0 0
Neighs:             36 ave          36 max          36 min
Histogram: 1 0 0 0 0 0 0 0 0 0

Total # of neighbors = 36
Ave neighs/atom = 0.36
Ave special neighs/atom = 1.98
Neighbor list builds = 9821
Dangerous builds = 8265
unfix           nvtSoft
unfix           rampSoft
reset_timestep  0

write_data      ${outputfile_relaxed}
write_data      5_relaxed.data
System init for write_data ...
Generated 0 of 6 mixed pair_coeff terms from geometric mixing rule
WARNING: Communication cutoff 1.3 is shorter than a bond length based estimate of 1.7550000000000001. This may lead to errors. (src/comm.cpp:727)
WARNING: Not all mixed pair coeffs generated from mixing. Use write_data with 'pair ij' option to store all pair coeffs. (src/write_data.cpp:309)

###########################################################################
# Full LJ with Coulomb
######################################################################

# Cutoffs and parameters:
# - Values: Marcel Verkade's Bachelor Thesis
# - Mapping to atom groups: Patrick Onck's paper
# - 1: aliphatic, 2: aromatic, 3: anion, 4: cation
# pair_style	lj/cut/coul/cut <lj_cut_global> <coul_cut_global>
# pair_coeff	<type_1>  <type_2>  <eps>  <sigma>  <r_cut_lj>  <r_cut_coul>

# Problem: Onck's model is much more complex, and Marcel has no sigma reported
# Using sigma=1 randomly

variable		glob_ljeps equal 1.0
variable		glob_ljsig 	equal 1.0
variable		glob_coulcut equal 10.0
variable		att_ljcut equal 2.50
variable		rep_ljcut equal 1.12

pair_style		lj/cut/coul/cut 						${att_ljcut} 	${glob_coulcut}
pair_style		lj/cut/coul/cut 						2.5 	${glob_coulcut}
pair_style		lj/cut/coul/cut 						2.5 	10
pair_coeff		1 1 	${glob_ljeps} 	${glob_ljsig}	${att_ljcut} 	${glob_coulcut}
pair_coeff		1 1 	1 	${glob_ljsig}	${att_ljcut} 	${glob_coulcut}
pair_coeff		1 1 	1 	1	${att_ljcut} 	${glob_coulcut}
pair_coeff		1 1 	1 	1	2.5 	${glob_coulcut}
pair_coeff		1 1 	1 	1	2.5 	10
pair_coeff		1 2 	${glob_ljeps} 	${glob_ljsig}	${att_ljcut} 	${glob_coulcut}
pair_coeff		1 2 	1 	${glob_ljsig}	${att_ljcut} 	${glob_coulcut}
pair_coeff		1 2 	1 	1	${att_ljcut} 	${glob_coulcut}
pair_coeff		1 2 	1 	1	2.5 	${glob_coulcut}
pair_coeff		1 2 	1 	1	2.5 	10
pair_coeff		1 3 	${glob_ljeps} 	${glob_ljsig}	${rep_ljcut} 	${glob_coulcut}
pair_coeff		1 3 	1 	${glob_ljsig}	${rep_ljcut} 	${glob_coulcut}
pair_coeff		1 3 	1 	1	${rep_ljcut} 	${glob_coulcut}
pair_coeff		1 3 	1 	1	1.12 	${glob_coulcut}
pair_coeff		1 3 	1 	1	1.12 	10
pair_coeff		1 4 	${glob_ljeps} 	${glob_ljsig}	${rep_ljcut} 	${glob_coulcut}
pair_coeff		1 4 	1 	${glob_ljsig}	${rep_ljcut} 	${glob_coulcut}
pair_coeff		1 4 	1 	1	${rep_ljcut} 	${glob_coulcut}
pair_coeff		1 4 	1 	1	1.12 	${glob_coulcut}
pair_coeff		1 4 	1 	1	1.12 	10
pair_coeff		2 2 	${glob_ljeps} 	${glob_ljsig}	${att_ljcut} 	${glob_coulcut}
pair_coeff		2 2 	1 	${glob_ljsig}	${att_ljcut} 	${glob_coulcut}
pair_coeff		2 2 	1 	1	${att_ljcut} 	${glob_coulcut}
pair_coeff		2 2 	1 	1	2.5 	${glob_coulcut}
pair_coeff		2 2 	1 	1	2.5 	10
pair_coeff		2 3 	${glob_ljeps} 	${glob_ljsig}	${rep_ljcut} 	${glob_coulcut}
pair_coeff		2 3 	1 	${glob_ljsig}	${rep_ljcut} 	${glob_coulcut}
pair_coeff		2 3 	1 	1	${rep_ljcut} 	${glob_coulcut}
pair_coeff		2 3 	1 	1	1.12 	${glob_coulcut}
pair_coeff		2 3 	1 	1	1.12 	10
pair_coeff		2 4 	${glob_ljeps} 	${glob_ljsig}	${att_ljcut} 	${glob_coulcut}
pair_coeff		2 4 	1 	${glob_ljsig}	${att_ljcut} 	${glob_coulcut}
pair_coeff		2 4 	1 	1	${att_ljcut} 	${glob_coulcut}
pair_coeff		2 4 	1 	1	2.5 	${glob_coulcut}
pair_coeff		2 4 	1 	1	2.5 	10
pair_coeff		3 3 	${glob_ljeps} 	${glob_ljsig}	${rep_ljcut} 	${glob_coulcut}
pair_coeff		3 3 	1 	${glob_ljsig}	${rep_ljcut} 	${glob_coulcut}
pair_coeff		3 3 	1 	1	${rep_ljcut} 	${glob_coulcut}
pair_coeff		3 3 	1 	1	1.12 	${glob_coulcut}
pair_coeff		3 3 	1 	1	1.12 	10
pair_coeff		3 4 	${glob_ljeps} 	${glob_ljsig}	${att_ljcut} 	${glob_coulcut}
pair_coeff		3 4 	1 	${glob_ljsig}	${att_ljcut} 	${glob_coulcut}
pair_coeff		3 4 	1 	1	${att_ljcut} 	${glob_coulcut}
pair_coeff		3 4 	1 	1	2.5 	${glob_coulcut}
pair_coeff		3 4 	1 	1	2.5 	10
pair_coeff		4 4 	${glob_ljeps} 	${glob_ljsig}	${rep_ljcut} 	${glob_coulcut}
pair_coeff		4 4 	1 	${glob_ljsig}	${rep_ljcut} 	${glob_coulcut}
pair_coeff		4 4 	1 	1	${rep_ljcut} 	${glob_coulcut}
pair_coeff		4 4 	1 	1	1.12 	${glob_coulcut}
pair_coeff		4 4 	1 	1	1.12 	10


fix             noDriftRot 	all momentum 10 linear 1 1 1 angular
fix             nvt1 		all nvt temp ${Temp} ${Temp} 0.5
fix             nvt1 		all nvt temp 1 ${Temp} 0.5
fix             nvt1 		all nvt temp 1 1 0.5

# dump          assemble 	all custom 1000 				${outputfile_selfasb} id type xu yu zu vx vy vz
dump            lindump 	all custom ${subsample_rate} 	${outputfile_trajlin} id type xu yu zu vx vy vz
dump            lindump 	all custom 1000 	${outputfile_trajlin} id type xu yu zu vx vy vz
dump            lindump 	all custom 1000 	6_b_trajlin.data id type xu yu zu vx vy vz

run             ${runtime}
run             1000000
Generated 0 of 6 mixed pair_coeff terms from geometric mixing rule
Neighbor list info ...
  update every 1 steps, delay 10 steps, check yes
  max neighbors/atom: 2000, page size: 100000
  master list distance cutoff = 10.3
  ghost atom cutoff = 10.3
  binsize = 5.15, bins = 7 7 7
  1 neighbor lists, perpetual/occasional/extra = 1 0 0
  (1) pair lj/cut/coul/cut, perpetual
      attributes: half, newton on
      pair build: half/bin/newton
      stencil: half/bin/3d
      bin: standard
Per MPI rank memory allocation (min/avg/max) = 7.712 | 7.712 | 7.712 Mbytes
   Step          Temp         Density         Press          TotEng         PotEng         KinEng         E_pair         S/CPU     
         0   1.1904942      0.0023323615  -0.001297546    21.925379      20.157495      1.7678839     -0.39083906     0            
      1000   1.0711678      0.0023323615  -0.0016257151   21.348389      19.757705      1.5906842     -0.65935397     19559.115    
      2000   1.0759662      0.0023323615   0.00052700393  21.295176      19.697366      1.5978098     -0.7972749      22815.976    
      3000   1.0755223      0.0023323615  -0.00020994668  21.184237      19.587087      1.5971506     -0.85494293     19071.759    
      4000   0.94863323     0.0023323615   3.3655927e-05  20.85308       19.44436       1.4087203     -0.98939809     14923.335    
      5000   0.97664408     0.0023323615  -0.0025240458   20.731353      19.281036      1.4503165     -1.2245605      14051.713    
      6000   1.0227168      0.0023323615  -0.0029966827   20.798832      19.280097      1.5187344     -1.1861969      13965.77     
      7000   0.86217776     0.0023323615   0.00090361432  20.884607      19.604273      1.280334      -1.0683772      14084.823    
      8000   0.89724261     0.0023323615  -0.00030502217  20.89679       19.564385      1.3324053     -1.0339628      14576.952    
      9000   0.88341247     0.0023323615  -0.0037030168   20.828548      19.51668       1.3118675     -0.93569331     14876.668    
     10000   1.0195969      0.0023323615  -0.0031069087   21.089818      19.575717      1.5141014     -0.98158882     14672.192    
     11000   0.93284577     0.0023323615   0.0023185547   20.960347      19.575071      1.385276      -0.91144911     14269.9      
     12000   0.92277108     0.0023323615   0.0025963935   20.681934      19.311619      1.370315      -1.2366267      13850.323    
     13000   1.0676754      0.0023323615   0.0012267865   20.862343      19.276845      1.5854979     -1.2155894      13846.645    
     14000   1.2401903      0.0023323615   0.0024826946   21.232335      19.390652      1.8416827     -1.0555439      13753.905    
     15000   1.118145       0.0023323615  -0.0012713318   21.14518       19.484735      1.6604453     -0.97855817     13895.209    
     16000   1.0049884      0.0023323615   0.0023928195   21.068803      19.576395      1.4924077     -0.94387042     13957.882    
     17000   0.95681193     0.0023323615  -0.00083390722  20.933481      19.512615      1.4208657     -0.9087184      13989.197    
     18000   0.98255863     0.0023323615   0.0032299157   21.182525      19.723425      1.4590996     -0.80537547     14770.097    
     19000   0.89208803     0.0023323615   0.0012604768   20.582013      19.257262      1.3247507     -1.1205735      15025.783    
     20000   1.0618599      0.0023323615   0.0013703066   20.997707      19.420845      1.576862      -1.1511611      14431.863    
     21000   1.1374393      0.0023323615   0.0033982745   21.390443      19.701346      1.6890974     -0.86755998     14277.895    
     22000   1.0686016      0.0023323615   0.0012748523   21.189351      19.602478      1.5868734     -0.89769959     14124.921    
     23000   1.0504279      0.0023323615   0.0020678622   20.956795      19.396909      1.5598855     -1.0975113      14127.526    
     24000   1.1000459      0.0023323615  -0.0041852137   20.924237      19.290669      1.6335682     -1.2809155      14017.679    
     25000   1.1213247      0.0023323615   0.0013948438   21.414064      19.748896      1.6651672     -0.95834874     13879.92     
     26000   1.0370238      0.0023323615  -0.0046895314   21.111697      19.571717      1.5399803     -0.92500617     14060.266    
     27000   1.0564462      0.0023323615   0.001395947    21.063416      19.494594      1.5688226     -1.0232558      13928.231    
     28000   1.0600373      0.0023323615   0.0026778749   21.083153      19.508998      1.5741554     -1.06245        14070.767    
     29000   1.2841629      0.0023323615   0.00067496232  21.567926      19.660945      1.9069818     -1.0250566      13983.645    
     30000   0.92072825     0.0023323615   0.001684067    20.869968      19.502686      1.3672814     -0.99255401     13878.955    
     31000   1.0781969      0.0023323615   0.0021371573   21.068408      19.467286      1.6011224     -1.0492369      14082.337    
     32000   0.90060199     0.0023323615  -0.0042309645   21.054778      19.717384      1.337394      -0.80880854     14060.991    
     33000   0.9062614      0.0023323615  -0.0034832235   20.819964      19.474166      1.3457982     -1.0206986      14365.458    
     34000   1.12864        0.0023323615   0.0043036249   21.117003      19.440973      1.6760304     -0.96325746     14048.624    
     35000   1.1437305      0.0023323615   0.0015384953   21.240721      19.542281      1.6984398     -0.96244613     13850.023    
     36000   1.0280341      0.0023323615   0.0047541391   20.932078      19.405447      1.5266306     -1.1501491      14065.534    
     37000   1.0292087      0.0023323615  -0.0035159361   20.865327      19.336952      1.5283749     -1.1202411      14001.06     
     38000   1.0685249      0.0023323615   0.0025064654   21.115947      19.529188      1.5867594     -1.0488774      14006.473    
     39000   1.0974591      0.0023323615  -0.0026369802   20.816234      19.186508      1.6297268     -1.2722573      13838.645    
     40000   0.96930675     0.0023323615  -0.00036122416  20.772952      19.333531      1.4394205     -1.1363663      13896.391    
     41000   0.98031764     0.0023323615  -0.0011742307   20.76459       19.308818      1.4557717     -1.2700154      13806.517    
     42000   0.82944621     0.0023323615   0.0043942788   20.545063      19.313336      1.2317276     -1.1645631      13762.653    
     43000   1.1013336      0.0023323615   0.0066038829   21.00312       19.36764       1.6354804     -1.0887009      13800.273    
     44000   1.0965238      0.0023323615   0.0010252047   21.03789       19.409552      1.6283378     -1.1257469      13937.999    
     45000   0.95707574     0.0023323615  -0.0045909836   20.752614      19.331357      1.4212575     -1.1502909      13999.002    
     46000   0.9567225      0.0023323615   0.00054110367  20.920622      19.499889      1.4207329     -1.0380385      14022.455    
     47000   0.92465425     0.0023323615   0.0023394049   20.680952      19.30784       1.3731116     -1.2358989      13864.741    
     48000   0.84415804     0.0023323615   0.00020330779  20.829514      19.57594       1.2535747     -0.84967243     13992.067    
     49000   0.99559659     0.0023323615  -0.00019532338  20.982809      19.504348      1.4784609     -0.99616998     14062.637    
     50000   0.94333847     0.0023323615   0.0021058817   20.80125       19.400392      1.4008576     -1.0131534      14147.019    
     51000   1.0440005      0.0023323615   0.0023790913   21.246171      19.695831      1.5503408     -0.91962625     14234.568    
     52000   1.0363509      0.0023323615   0.00067138501  21.174149      19.635168      1.5389812     -0.89447557     14399.899    
     53000   0.93965759     0.0023323615  -0.003914735    20.892057      19.496666      1.3953915     -1.0293536      14932.813    
     54000   0.94691543     0.0023323615   0.002966945    21.0003        19.59413       1.4061694     -1.009364       14608.987    
     55000   0.90414457     0.0023323615   0.0031563568   20.947451      19.604796      1.3426547     -0.8750214      15221.925    
     56000   1.0789213      0.0023323615   0.0012340181   21.481779      19.879581      1.6021981     -0.76111884     16471.633    
     57000   0.93205704     0.0023323615  -0.00053416576  21.171966      19.787861      1.3841047     -0.72703464     17244.659    
     58000   0.94964494     0.0023323615  -4.0094525e-05  21.012741      19.602519      1.4102227     -0.88090329     17350.262    
     59000   0.92360879     0.0023323615   0.00064361181  20.961187      19.589628      1.3715591     -0.92113642     16588.746    
     60000   0.85792143     0.0023323615  -0.0020501972   20.723833      19.449819      1.2740133     -1.0041603      15370.633    
     61000   0.99199936     0.0023323615  -0.0018380934   21.094397      19.621278      1.4731191     -0.93536838     14311.119    
     62000   0.95445129     0.0023323615  -0.00045910858  21.008065      19.590705      1.4173602     -0.94970165     14111.804    
     63000   0.91715073     0.0023323615  -0.0045047479   20.896595      19.534626      1.3619688     -1.1735307      13930.299    
     64000   0.88233072     0.0023323615   0.0044907294   20.800923      19.490662      1.3102611     -0.98679977     13941.587    
     65000   0.94451729     0.0023323615   0.0031861002   20.771685      19.369077      1.4026082     -1.0856403      14023.402    
     66000   1.1527356      0.0023323615   0.0060753804   20.986557      19.274745      1.7118124     -1.1185738      13948.104    
     67000   0.99566661     0.0023323615   0.00028134343  21.287094      19.808529      1.4785649     -1.0008029      13856.653    
     68000   0.94162307     0.0023323615  -0.002755452    20.994209      19.595899      1.3983103     -1.100859       13956.58     
     69000   1.0429941      0.0023323615  -0.0024136947   21.145167      19.596321      1.5488463     -0.96584999     13903.037    
     70000   1.0232327      0.0023323615   0.00050716593  21.021557      19.502056      1.5195005     -1.065834       14129.311    
     71000   0.94276525     0.0023323615  -0.005232454    20.94032       19.540314      1.4000064     -1.0694743      14976.33     
     72000   0.96220582     0.0023323615  -0.0028318806   21.107291      19.678415      1.4288756     -0.78546374     15457.998    
     73000   1.0037623      0.0023323615   0.00041253199  21.169033      19.678446      1.490587      -0.97315107     15753.721    
     74000   0.9397007      0.0023323615  -0.0026742986   21.16448       19.769024      1.3954555     -0.92315555     15353.135    
     75000   1.2188226      0.0023323615  -0.00084111747  21.290269      19.480318      1.8099516     -0.96242297     14649.359    
     76000   0.95693943     0.0023323615  -0.00016339703  21.001546      19.580491      1.4210551     -1.0189753      14026.838    
     77000   0.96867045     0.0023323615  -0.00062216193  21.009956      19.57148       1.4384756     -0.95705726     13799.134    
     78000   1.0187458      0.0023323615  -0.0022721588   21.305153      19.792316      1.5128375     -0.71640217     14058.096    
     79000   1.1643257      0.0023323615  -0.001694584    21.416907      19.687884      1.7290237     -0.82188844     14997.059    
     80000   0.8932573      0.0023323615  -0.0026209573   20.944389      19.617902      1.3264871     -0.82081419     15843.835    
     81000   0.99362589     0.0023323615  -0.002090303    21.12943       19.653896      1.4755344     -0.80347415     15173.26     
     82000   0.99312222     0.0023323615   0.00076941728  21.205546      19.730759      1.4747865     -0.60064104     14431.467    
     83000   1.0625295      0.0023323615   0.0017156037   21.04504       19.467183      1.5778563     -1.1123637      14118.106    
     84000   0.98668394     0.0023323615   0.00092720417  21.163829      19.698603      1.4652256     -0.8849138      13917.559    
     85000   0.99962626     0.0023323615   0.0035504085   21.266153      19.781708      1.484445      -0.7547881      14079.852    
     86000   1.0082708      0.0023323615  -0.0015938895   20.935433      19.438151      1.4972822     -1.1289941      14067.628    
     87000   1.0263482      0.0023323615  -0.0010511293   20.990193      19.466065      1.5241271     -1.0448036      13966.653    
     88000   0.92441744     0.0023323615  -0.0026688768   20.840303      19.467543      1.3727599     -1.0216968      13975.424    
     89000   1.0733029      0.0023323615   5.7867934e-05  20.978991      19.385136      1.5938548     -1.0573061      13888.317    
     90000   1.0267158      0.0023323615   0.0027441995   20.75907       19.234397      1.524673      -1.232834       13870.615    
     91000   0.96411241     0.0023323615   0.00027214355  20.945545      19.513838      1.4317069     -1.1495127      14577.459    
     92000   1.0013824      0.0023323615  -0.0016630488   21.147455      19.660402      1.4870529     -0.85415734     15755.309    
     93000   1.0312005      0.0023323615  -0.0027980702   21.116632      19.585299      1.5313328     -0.98593307     15395.152    
     94000   1.0750637      0.0023323615   0.0011659269   20.963559      19.36709       1.5964696     -1.2465861      14454.067    
     95000   1.1607613      0.0023323615   0.00097030841  21.333738      19.610008      1.7237305     -1.0082948      14050.113    
     96000   1.0030946      0.0023323615  -0.0023316138   20.961979      19.472384      1.4895955     -1.042665       13989.772    
     97000   1.0661119      0.0023323615  -0.002197957    21.066269      19.483093      1.5831762     -1.1285467      13935.565    
     98000   0.92540427     0.0023323615   0.0014722654   21.002959      19.628734      1.3742253     -1.0273783      13901.947    
     99000   0.94578887     0.0023323615  -0.0012578053   20.840856      19.43636       1.4044965     -1.0647547      13897.602    
    100000   0.88362181     0.0023323615   0.00060036407  20.759938      19.447759      1.3121784     -1.0042178      14002.392    
    101000   0.96211078     0.0023323615  -0.0024918484   20.963823      19.535089      1.4287345     -1.0219803      13923.442    
    102000   1.0384288      0.0023323615   0.00182344     21.215907      19.673841      1.5420668     -0.93732711     14007.194    
    103000   1.1471362      0.0023323615   0.0016178537   21.491584      19.788087      1.7034973     -0.8794624      14022.981    
    104000   1.0814681      0.0023323615  -0.0022677984   21.091186      19.485206      1.6059801     -1.0427188      13926.595    
    105000   1.0664039      0.0023323615   0.0010046995   21.200139      19.616529      1.5836098     -0.95967526     13935.821    
    106000   0.98690775     0.0023323615   0.003246783    20.913874      19.448316      1.465558      -0.97340708     13980.408    
    107000   0.96085671     0.0023323615  -7.2914612e-05  20.734385      19.307513      1.4268722     -1.2340798      13931.239    
    108000   1.0795538      0.0023323615  -0.0017105742   20.913441      19.310304      1.6031374     -1.1219561      13945.35     
    109000   0.89446742     0.0023323615   0.0016277946   20.648287      19.320003      1.3282841     -1.0902878      14037.775    
    110000   1.0352257      0.0023323615  -0.0031428877   20.882351      19.345041      1.5373102     -1.1422154      13848.253    
    111000   0.9040664      0.0023323615   0.00013234439  21.014716      19.672177      1.3425386     -0.79625326     13954.789    
    112000   0.90931944     0.0023323615   0.0007664531   20.910968      19.560629      1.3503394     -0.98577897     14026.482    
    113000   1.029469       0.0023323615   0.0022408314   21.160001      19.63124       1.5287615     -0.8116184      14458.803    
    114000   0.93145774     0.0023323615  -0.0026771473   20.699176      19.315962      1.3832147     -1.1367539      14949.912    
    115000   1.0504291      0.0023323615  -0.0024465632   21.084507      19.52462       1.5598872     -0.94596531     15327.98     
    116000   1.1236488      0.0023323615   0.0011357072   21.142707      19.474089      1.6686185     -1.0812807      14531.993    
    117000   1.0761126      0.0023323615   0.00045083515  20.869643      19.271616      1.5980273     -1.1918032      14050.222    
    118000   1.0156112      0.0023323615  -0.00022056054  20.945583      19.437401      1.5081827     -1.0191813      14094.025    
    119000   1.0470255      0.0023323615   0.0031695781   21.104051      19.549219      1.5548328     -0.87933927     14005.84     
    120000   0.98574349     0.0023323615  -0.00048819279  20.876367      19.412537      1.4638291     -1.0547213      14021.992    
    121000   1.0001905      0.0023323615   0.0043627639   20.849594      19.364312      1.4852829     -1.1879921      13916.085    
    122000   0.92200337     0.0023323615   0.0014088537   20.940302      19.571127      1.369175      -0.84042509     13910.127    
    123000   1.037043       0.0023323615   0.0051318194   21.171939      19.63193       1.5400089     -0.91717486     13910.416    
    124000   1.0529956      0.0023323615   0.0021351538   20.980553      19.416854      1.5636985     -1.1000029      13928.813    
    125000   0.98495074     0.0023323615   0.0010739278   20.984589      19.521937      1.4626519     -1.0496174      13876.564    
    126000   1.0248312      0.0023323615  -0.0023722673   21.165256      19.643381      1.5218743     -0.95759776     13895.485    
    127000   1.0308973      0.0023323615   0.00021024017  20.791398      19.260515      1.5308825     -1.2660039      13887.742    
    128000   1.0392284      0.0023323615  -0.0018031464   21.066688      19.523434      1.5432542     -1.0186459      13929.255    
    129000   0.90429947     0.0023323615  -0.0014123606   20.698107      19.355222      1.3428847     -1.0664585      13718.811    
    130000   1.0733801      0.0023323615   0.00031521322  21.015906      19.421937      1.5939695     -1.1058874      13816.006    
    131000   1.005505       0.0023323615  -0.0023659034   20.875849      19.382674      1.4931749     -1.2128299      13653.649    
    132000   1.0062326      0.0023323615  -0.0050542049   20.915156      19.4209        1.4942555     -1.152037       13796.031    
    133000   1.1091185      0.0023323615   0.0023316944   20.982025      19.334984      1.647041      -1.1460483      13755.406    
    134000   1.1916723      0.0023323615   0.00049443735  21.118155      19.348521      1.7696333     -1.1551002      13810.661    
    135000   0.96770553     0.0023323615  -0.00027036534  20.789539      19.352496      1.4370427     -1.2440449      13894.945    
    136000   1.0096027      0.0023323615   0.00029984146  20.891056      19.391796      1.49926       -1.0978868      13974.602    
    137000   1.0417322      0.0023323615   0.0026062027   21.157889      19.610917      1.5469723     -0.96130332     13957.991    
    138000   1.0159726      0.0023323615  -0.00090042161  20.861713      19.352994      1.5087193     -1.2422505      13914.164    
    139000   0.9269219      0.0023323615  -0.0065420156   20.733276      19.356797      1.376479      -1.2162413      13839.52     
    140000   1.0451181      0.0023323615  -0.0049815335   21.154637      19.602637      1.5520004     -0.92457216     13804.182    
    141000   1.0251477      0.0023323615   0.0032498439   21.08054       19.558196      1.5223444     -1.012054       13920.543    
    142000   1.0019386      0.0023323615  -0.00080549092  20.801991      19.314112      1.4878788     -1.2111414      13928.923    
    143000   1.0148418      0.0023323615  -0.0005775912   21.122316      19.615276      1.5070401     -1.053915       13910.447    
    144000   0.94717866     0.0023323615  -0.0030811883   20.888794      19.482234      1.4065603     -1.1121876      13938.03     
    145000   1.0621028      0.0023323615  -0.00018037826  20.908858      19.331635      1.5772227     -1.1758659      13832.775    
    146000   0.97319271     0.0023323615  -0.00030684832  20.612293      19.167101      1.4451912     -1.3084355      13922.78     
    147000   1.0281937      0.0023323615  -0.0033689729   21.078151      19.551283      1.5268677     -1.0165137      13893.67     
    148000   1.0810063      0.0023323615  -0.0010706652   20.847926      19.242631      1.6052943     -1.2562369      13991.111    
    149000   0.98635792     0.0023323615  -0.0034809743   20.929179      19.464438      1.4647415     -1.1306795      13969.355    
    150000   0.93779846     0.0023323615   0.003008851    20.791286      19.398655      1.3926307     -1.0553235      13993.876    
    151000   0.93469526     0.0023323615  -0.0016354297   21.009963      19.621941      1.3880225     -1.0203465      14045.425    
    152000   0.87464208     0.0023323615   4.088552e-05   20.71567       19.416826      1.2988435     -1.147058       14017.474    
    153000   0.96241438     0.0023323615  -0.00038149866  20.780954      19.351769      1.4291854     -1.090826       13962.585    
    154000   0.89292526     0.0023323615   0.003832873    20.728854      19.40286       1.325994      -1.0777726      14001.416    
    155000   0.95691914     0.0023323615  -0.0028157292   20.868638      19.447613      1.4210249     -1.1700191      13860.076    
    156000   0.87094575     0.0023323615   0.0012310661   20.783417      19.490062      1.2933544     -1.0468951      13890.093    
    157000   1.0948872      0.0023323615   0.0060526451   20.913165      19.287258      1.6259075     -1.2090372      13859.749    
    158000   0.84442514     0.0023323615  -0.00046087869  20.590028      19.336057      1.2539713     -1.3407913      13820.695    
    159000   0.9709444      0.0023323615  -0.0031640858   20.877133      19.43528       1.4418524     -1.2223634      13842.877    
    160000   0.91596717     0.0023323615  -0.0011789247   20.831809      19.471598      1.3602112     -1.1269701      13862.372    
    161000   0.98276293     0.0023323615  -0.00022664109  20.84888       19.389477      1.459403      -1.1016151      14015.76     
    162000   1.1516803      0.0023323615   0.0017264731   21.195471      19.485225      1.7102452     -0.97792623     14048.734    
    163000   1.0832525      0.0023323615   0.0031282999   20.994865      19.386235      1.60863       -1.1820066      13980.78     
    164000   1.0923978      0.0023323615   0.0042895477   21.244516      19.622306      1.6222107     -0.96963227     14066.395    
    165000   0.98844543     0.0023323615   0.00075806377  20.822977      19.355135      1.4678415     -1.0839997      14141.861    
    166000   0.95968285     0.0023323615  -0.002705549    20.926584      19.501455      1.425129      -1.0429428      13863.368    
    167000   1.0428996      0.0023323615  -0.002958141    20.891289      19.342583      1.5487059     -1.2068834      14030.162    
    168000   1.0672294      0.0023323615   0.0023854743   21.050915      19.466079      1.5848356     -1.0357587      13837.723    
    169000   0.98550697     0.0023323615  -0.00064694652  20.905469      19.441991      1.4634778     -1.0678701      13963.781    
    170000   1.0408837      0.0023323615   0.00018451316  21.038544      19.492831      1.5457123     -0.99792347     13953.008    
    171000   0.86755893     0.0023323615  -0.0010434151   20.731419      19.443094      1.288325      -0.96424744     13892.918    
    172000   1.0915654      0.0023323615  -0.0037911024   21.105251      19.484276      1.6209746     -1.0949024      13915.471    
    173000   1.0325103      0.0023323615  -0.0018530509   20.908143      19.374865      1.5332778     -1.1422362      13894.307    
    174000   0.88987772     0.0023323615  -0.0024742274   20.573324      19.251856      1.3214684     -1.3266734      13828.685    
    175000   0.99601174     0.0023323615   0.0016424996   20.978157      19.499079      1.4790774     -1.0223176      14003.806    
    176000   0.89976132     0.0023323615   0.0038902648   20.629629      19.293483      1.3361456     -1.3205636      13829.975    
    177000   0.86668987     0.0023323615   0.0049476315   20.702356      19.415321      1.2870345     -1.1629814      13884.1      
    178000   0.94902782     0.0023323615   0.0029894278   20.87253       19.463224      1.4093063     -0.98597156     13991.011    
    179000   1.0600346      0.0023323615   0.0047628064   21.137871      19.56372       1.5741514     -0.89578061     14147.4      
    180000   1.0664388      0.0023323615  -0.00063793694  21.020427      19.436765      1.5836617     -1.115553       13928.309    
    181000   1.0141974      0.0023323615   0.0011038944   20.995298      19.489215      1.5060831     -1.082567       13873.127    
    182000   1.0381452      0.0023323615   0.0028501306   20.900708      19.359062      1.5416456     -1.1944244      14004.714    
    183000   1.0060907      0.0023323615  -0.002907262    21.157235      19.66319       1.4940447     -0.90089527     14064.968    
    184000   0.96039473     0.0023323615   6.1466008e-05  21.019015      19.592829      1.4261862     -0.88309251     14261.108    
    185000   0.89580503     0.0023323615  -0.0017492055   20.823892      19.493621      1.3302705     -0.98035718     14511.744    
    186000   0.9739555      0.0023323615   0.0034200338   20.990919      19.544595      1.4463239     -1.0831709      14349.215    
    187000   1.2050982      0.0023323615  -0.00061310931  21.167983      19.378412      1.7895709     -1.1092498      14001.775    
    188000   1.0450277      0.0023323615  -3.7810524e-05  21.001672      19.449806      1.5518661     -1.0404327      13916.104    
    189000   1.0328751      0.0023323615   0.0014676097   20.974065      19.440246      1.5338195     -1.0953721      14118.925    
    190000   1.0891653      0.0023323615  -0.0017922966   21.068104      19.450694      1.6174104     -1.155292       14016.252    
    191000   1.0278316      0.0023323615  -0.00070041576  21.16819       19.64186       1.52633       -0.89804206     14090.029    
    192000   1.0129197      0.0023323615   0.0017278158   21.179184      19.674998      1.5041858     -0.88933368     14236.065    
    193000   0.95954053     0.0023323615   0.0014668798   21.033041      19.608123      1.4249177     -1.070964       14121.399    
    194000   1.013911       0.0023323615   0.0016373403   20.727828      19.22217       1.5056578     -1.2529686      13979.505    
    195000   1.2199086      0.0023323615   0.00057502662  21.120596      19.309032      1.8115643     -1.167869       13872.424    
    196000   1.0690439      0.0023323615   0.0012078608   21.041077      19.453546      1.5875302     -1.0209055      13865.461    
    197000   1.0735879      0.0023323615   0.007543263    21.098744      19.504466      1.5942781     -1.1231933      13927.318    
    198000   0.9131314      0.0023323615  -0.0029520343   20.823256      19.467256      1.3560001     -1.1025892      13906.259    
    199000   1.0715383      0.0023323615   0.0004852028   21.031615      19.44038       1.5912344     -1.0645515      14244.492    
    200000   1.0388821      0.0023323615   0.0030790665   21.103498      19.560758      1.54274       -1.0411039      14107.055    
    201000   1.0963599      0.0023323615  -0.0029622708   21.1342        19.506105      1.6280944     -0.98136487     13848.094    
    202000   0.98682212     0.0023323615   0.0011187892   21.09124       19.625809      1.4654308     -0.95736135     13907.598    
    203000   0.96254092     0.0023323615  -0.00023010944  20.752725      19.323352      1.4293733     -1.1572885      13905.981    
    204000   1.0115541      0.0023323615   0.00092574873  20.904127      19.401969      1.5021579     -1.0947891      13952.573    
    205000   1.006052       0.0023323615   0.0040460225   21.140375      19.646388      1.4939873     -0.84105095     14119.09     
    206000   1.0732475      0.0023323615   0.0053429526   21.23891       19.645137      1.5937725     -0.89198094     14184.899    
    207000   0.95426085     0.0023323615   0.0024051707   21.029127      19.61205       1.4170774     -0.93473768     14120.538    
    208000   0.96207368     0.0023323615   0.00032859245  20.844981      19.416302      1.4286794     -1.0868676      13983.896    
    209000   0.91664845     0.0023323615  -0.0004799912   20.616288      19.255065      1.3612229     -1.2129856      13852.366    
    210000   1.0448247      0.0023323615   0.0022250269   20.975609      19.424044      1.5515647     -1.1000504      13902.389    
    211000   0.95044472     0.0023323615   0.0006389494   20.785239      19.373829      1.4114104     -1.2040846      13837.057    
    212000   0.98449351     0.0023323615   0.0037411167   20.779376      19.317403      1.4619729     -1.1692601      13893.309    
    213000   0.9119549      0.0023323615   0.00091230879  20.556037      19.201784      1.354253      -1.2840513      13753.634    
    214000   0.980807       0.0023323615  -0.0022359286   20.694432      19.237934      1.4564984     -1.2645756      13829.795    
    215000   0.94487646     0.0023323615   0.0026606934   20.661937      19.258795      1.4031415     -1.1743827      13842.338    
    216000   1.0485472      0.0023323615   0.0034842616   20.97041       19.413317      1.5570926     -1.1300244      13803.71     
    217000   1.0913315      0.0023323615  -0.0025394443   21.049452      19.428825      1.6206272     -1.073757       13994.401    
    218000   1.0775861      0.0023323615  -5.1867591e-05  20.842711      19.242496      1.6002153     -1.1675454      13844.11     
    219000   1.0604436      0.0023323615  -0.0012220858   21.323164      19.748405      1.5747588     -0.8035715      13943.644    
    220000   1.2061618      0.0023323615  -0.0026089439   21.326279      19.535129      1.7911503     -1.1070082      13893.76     
    221000   1.0546541      0.0023323615   0.0011686461   21.061853      19.495692      1.5661614     -1.0796612      13878.98     
    222000   0.97278282     0.0023323615   0.00031212701  20.793546      19.348963      1.4445825     -1.1265317      14001.908    
    223000   0.87280083     0.0023323615  -0.0020642857   20.552131      19.256022      1.2961092     -1.2070176      14077.761    
    224000   1.0416217      0.0023323615   0.0027444556   21.077647      19.530839      1.5468082     -1.0324773      14011.532    
    225000   1.0016944      0.0023323615  -0.0021494781   21.077398      19.589882      1.4875162     -1.0072789      14096.498    
    226000   1.0577461      0.0023323615  -0.0022311158   20.788935      19.218182      1.5707529     -1.3036438      13955.967    
    227000   1.0110193      0.0023323615   0.0032819183   21.158256      19.656892      1.5013636     -0.93147646     13960.215    
    228000   0.98959823     0.0023323615   0.0012365112   20.988062      19.518509      1.4695534     -0.99453776     14217.929    
    229000   1.0554696      0.0023323615  -0.0024730415   20.95479       19.387418      1.5673724     -1.0522757      14020.381    
    230000   1.0090834      0.0023323615  -0.00064507912  20.839736      19.341247      1.4984889     -1.0597816      13930.945    
    231000   1.0254996      0.0023323615  -0.00044484805  21.123478      19.600611      1.5228669     -0.99476518     14232.669    
    232000   0.94508274     0.0023323615   0.00035617538  20.681503      19.278055      1.4034479     -1.100125       13898.368    
    233000   0.88722655     0.0023323615   0.0047232648   20.734316      19.416784      1.3175314     -1.2312976      13929.116    
    234000   0.99159191     0.0023323615  -0.00016253028  20.798929      19.326415      1.472514      -1.1621136      13982.582    
    235000   1.00304        0.0023323615   0.0025082283   21.032347      19.542833      1.4895144     -0.95192251     13994.533    
    236000   0.86549394     0.0023323615  -0.0028840906   20.900611      19.615353      1.2852585     -0.96046794     14069.478    
    237000   0.8915614      0.0023323615   0.0011507246   21.001353      19.677384      1.3239687     -0.79076374     14033.776    
    238000   0.91170641     0.0023323615   0.0036834773   20.941794      19.58791       1.353884      -0.91420273     14055.936    
    239000   0.90650534     0.0023323615  -0.00089477647  20.864713      19.518552      1.3461604     -0.99378525     14390.637    
    240000   0.86783083     0.0023323615  -0.0022898125   20.712053      19.423324      1.2887288     -1.0248871      14380.029    
    241000   0.92594309     0.0023323615   0.0073916989   20.930159      19.555133      1.3750255     -0.99650185     14159.789    
    242000   1.0755304      0.0023323615  -0.00046247878  21.151108      19.553946      1.5971626     -0.94717445     14140.888    
    243000   0.82857436     0.0023323615  -0.0013461624   20.532123      19.30169       1.2304329     -1.1792047      14114.067    
    244000   1.0099519      0.0023323615   0.0029112627   20.923161      19.423382      1.4997785     -1.1275585      13957.733    
    245000   0.97824211     0.0023323615  -0.00037047112  20.831833      19.379144      1.4526895     -1.1013107      13912.669    
    246000   0.93554439     0.0023323615  -0.0035675289   20.829169      19.439886      1.3892834     -1.1049793      13882.665    
    247000   0.95000096     0.0023323615  -0.0017969915   20.81443       19.403679      1.4107514     -1.1309356      14048.491    
    248000   0.96600625     0.0023323615   0.0025449562   20.785687      19.351168      1.4345193     -1.1280177      13985.807    
    249000   1.1321448      0.0023323615   0.0023040089   20.943706      19.262471      1.681235      -1.2417993      13983.359    
    250000   1.0781393      0.0023323615   0.0022029798   20.824122      19.223085      1.6010369     -1.2107599      13916.849    
    251000   1.0202654      0.0023323615  -0.00422385     20.696266      19.181172      1.5150941     -1.3689483      13885.773    
    252000   1.1067957      0.0023323615   0.0036019653   20.965307      19.321716      1.6435916     -1.3305914      13890.948    
    253000   0.9786557      0.0023323615  -0.00058600903  20.748623      19.295319      1.4533037     -1.283151       13774.418    
    254000   0.87807254     0.0023323615  -0.00058390731  20.808049      19.504112      1.3039377     -1.0051529      13909.652    
    255000   0.89686036     0.0023323615   0.0017612294   20.717932      19.386094      1.3318376     -1.0270889      13887.363    
    256000   1.0212689      0.0023323615   0.0017062392   20.863958      19.347374      1.5165844     -1.1369139      13904.108    
    257000   0.98471305     0.0023323615   0.0022059109   21.107059      19.64476       1.4622989     -0.94538888     13908.578    
    258000   1.1706888      0.0023323615  -0.00057933367  21.137743      19.39927       1.7384728     -1.1666734      13881.563    
    259000   1.0644355      0.0023323615  -0.0024831855   20.802819      19.222132      1.5806867     -1.2700736      13807.34     
    260000   0.97164913     0.0023323615  -0.00066889831  20.802452      19.359553      1.442899      -1.1159366      13816.969    
    261000   1.0648041      0.0023323615   0.001298036    21.092152      19.510918      1.5812341     -1.0558364      13824.605    
    262000   0.9244495      0.0023323615   0.00068238507  20.858482      19.485675      1.3728075     -1.1336731      14001.908    
    263000   1.0042452      0.0023323615  -0.00311289     20.959357      19.468053      1.4913041     -1.0111612      14042.408    
    264000   1.03553        0.0023323615   0.0039400781   21.015096      19.477334      1.537762      -1.0709052      13903.978    
    265000   0.98239502     0.0023323615   0.0036174909   21.057863      19.599006      1.4588566     -0.95576109     14346.648    
    266000   1.0204356      0.0023323615   0.0015668387   20.834109      19.318762      1.5153468     -1.1533058      14637.316    
    267000   1.0350342      0.0023323615   0.0007172975   20.846809      19.309784      1.5370258     -1.1746606      14305.652    
    268000   0.8792352      0.0023323615   0.0029868419   20.430345      19.124681      1.3056643     -1.304606       14076.226    
    269000   0.99268875     0.0023323615   0.0010027419   20.726839      19.252696      1.4741428     -1.2777817      13838.577    
    270000   1.0251809      0.0023323615  -4.1323813e-05  21.277632      19.755238      1.5223937     -0.98641767     14068.633    
    271000   1.0525927      0.0023323615  -0.0022726714   21.206769      19.643669      1.5631001     -1.0976323      14106.03     
    272000   1.0519692      0.0023323615   0.0014475738   20.939126      19.376952      1.5621742     -1.1543866      13953.911    
    273000   1.0624366      0.0023323615   0.0029072155   21.096705      19.518986      1.5777184     -0.89354952     14043.506    
    274000   0.87469338     0.0023323615  -0.0015344323   20.662503      19.363583      1.2989197     -1.0222708      14068.096    
    275000   0.89161644     0.0023323615   0.00061805189  20.728097      19.404046      1.3240504     -1.2519764      13958.018    
    276000   1.038661       0.0023323615   0.0014815894   21.18017       19.637758      1.5424115     -0.97731242     13947.771    
    277000   1.0088607      0.0023323615  -0.000496239    21.139641      19.641482      1.4981582     -0.89044306     13946.256    
    278000   1.0384391      0.0023323615  -0.0043177893   20.830728      19.288646      1.5420821     -1.2951816      13770.285    
    279000   1.0596726      0.0023323615  -0.0026806492   20.894214      19.3206        1.5736138     -1.2041398      13833.421    
    280000   1.1213697      0.0023323615   0.0051553339   21.059595      19.394361      1.6652341     -1.0908631      13931.346    
    281000   1.0607083      0.0023323615   0.0014747171   20.816218      19.241066      1.5751519     -1.270698       13929.112    
    282000   1.1174101      0.0023323615  -0.0011408133   21.233052      19.573697      1.659354      -0.9757698      13697.306    
    283000   1.0502636      0.0023323615  -0.0018346791   21.148664      19.589023      1.5596415     -1.0531819      13728.367    
    284000   1.124542       0.0023323615   0.0018563776   21.058932      19.388987      1.6699449     -1.1147322      13877.957    
    285000   0.91001425     0.0023323615  -0.0026859446   20.867092      19.51572       1.3513712     -0.99442058     13871.467    
    286000   0.97781696     0.0023323615  -0.00050774285  20.754814      19.302756      1.4520582     -1.2029231      14033.78     
    287000   1.054979       0.0023323615   0.003783837    21.059784      19.49314       1.5666438     -1.0157883      14025.584    
    288000   1.0388642      0.0023323615  -8.7976646e-05  21.049523      19.50681       1.5427133     -0.98398392     13882.806    
    289000   1.0421368      0.0023323615   0.0022113201   21.024655      19.477082      1.5475731     -1.0723693      13870.457    
    290000   1.0537115      0.0023323615  -0.0050196219   20.849579      19.284817      1.5647615     -1.1848099      13820.402    
    291000   1.0067708      0.0023323615  -0.0035268717   20.882889      19.387834      1.4950546     -1.2325305      13811.276    
    292000   0.8963187      0.0023323615  -0.0019249875   20.78346       19.452427      1.3310333     -1.1927246      13857.438    
    293000   0.98297923     0.0023323615  -0.001678393    20.754834      19.29511       1.4597242     -1.2208422      13988.878    
    294000   1.0088896      0.0023323615   0.0044257861   20.902723      19.404522      1.498201      -1.1082339      14012.594    
    295000   1.0362723      0.0023323615  -0.0011828269   20.888333      19.349469      1.5388643     -1.2872159      13804.264    
    296000   1.0497698      0.0023323615   0.000547921    21.068114      19.509206      1.5589082     -0.95417514     13888.203    
    297000   0.97831362     0.0023323615  -0.0017415224   20.728729      19.275933      1.4527957     -1.1561626      13843.889    
    298000   0.97618303     0.0023323615   0.00089538842  20.80296       19.353328      1.4496318     -1.1707148      13899.033    
    299000   1.0218889      0.0023323615   0.0045385866   20.974056      19.456551      1.517505      -1.1043024      13915.458    
    300000   0.9478703      0.0023323615   0.00089464816  20.781129      19.373541      1.4075874     -1.1326607      14244.72     
    301000   0.98408028     0.0023323615   0.0040506614   21.194229      19.73287       1.4613592     -0.85907835     14535.263    
    302000   0.94145228     0.0023323615  -0.001867323    21.055678      19.657622      1.3980566     -0.9522731      14609.708    
    303000   0.92576868     0.0023323615  -0.00083659598  20.967141      19.592374      1.3747665     -0.8955523      14257.343    
    304000   1.0446122      0.0023323615  -0.0045144243   21.133412      19.582163      1.5512491     -0.95739028     14034.966    
    305000   0.93069281     0.0023323615  -0.0048636753   20.882299      19.50022       1.3820788     -0.98010838     14002.486    
    306000   0.91691112     0.0023323615   0.0015529628   20.926019      19.564406      1.361613      -0.86144354     14149.899    
    307000   0.95728953     0.0023323615  -0.0019702242   20.807572      19.385997      1.421575      -1.0965565      14296.401    
    308000   0.9413059      0.0023323615   0.0010354057   20.982751      19.584912      1.3978393     -0.95615598     14117.994    
    309000   0.99537157     0.0023323615   0.00087267585  21.065047      19.586921      1.4781268     -1.0683073      14165.257    
    310000   1.0474934      0.0023323615   0.00011518887  21.105072      19.549544      1.5555277     -0.91644535     14438.13     
    311000   1.0269971      0.0023323615  -0.00071276106  21.163749      19.638658      1.5250906     -1.0461257      14309.391    
    312000   0.9175919      0.0023323615   0.0011103952   20.812599      19.449975      1.362624      -1.0060058      14232.094    
    313000   1.0518555      0.0023323615   0.0034088867   20.829089      19.267084      1.5620055     -1.1777981      14211.213    
    314000   0.91693953     0.0023323615   7.6927317e-05  20.808132      19.446477      1.3616552     -1.1961027      14015.392    
    315000   1.117615       0.0023323615   0.0028063519   21.099681      19.440023      1.6596583     -1.0217516      13954.198    
    316000   1.1264224      0.0023323615   0.00022480164  21.266033      19.593295      1.6727372     -1.0152106      13984.793    
    317000   1.011748       0.0023323615   0.00024012872  21.393865      19.89142       1.5024458     -0.73399597     14381.663    
    318000   1.0769321      0.0023323615   0.0069738253   21.097165      19.497921      1.5992441     -1.0414801      14952.161    
    319000   1.1019235      0.0023323615  -0.0018829364   21.1989        19.562544      1.6363565     -0.98406691     14808.276    
    320000   1.0322794      0.0023323615   0.0019383473   21.058503      19.525568      1.532935      -0.97534282     14843.218    
    321000   0.90870415     0.0023323615   0.0031672098   21.046546      19.69712       1.3494257     -0.75441171     15923.219    
    322000   0.93510961     0.0023323615   0.0022127241   21.066589      19.677951      1.3886378     -0.86256111     16026.928    
    323000   1.0569392      0.0023323615  -0.0035773787   21.256533      19.686978      1.5695547     -0.7865895      15514.316    
    324000   0.95068022     0.0023323615   0.0023834009   20.938702      19.526942      1.4117601     -0.98638619     14821.326    
    325000   0.93823848     0.0023323615   0.001084047    20.81882       19.425536      1.3932841     -1.0412263      13986.722    
    326000   0.99244664     0.0023323615   0.00057535112  20.589277      19.115494      1.4737833     -1.2953168      13853.124    
    327000   1.0122485      0.0023323615  -0.0011830246   21.005356      19.502167      1.503189      -1.0715856      13889.777    
    328000   0.90354287     0.0023323615   0.00033882237  20.882912      19.541151      1.3417612     -0.99389196     13836.178    
    329000   1.0519523      0.0023323615  -0.0010596405   20.968858      19.406709      1.5621492     -1.1208645      13815.855    
    330000   1.2111284      0.0023323615  -0.00026138049  21.309489      19.510963      1.7985256     -0.99684533     14015.975    
    331000   1.0043276      0.0023323615   0.00039313651  20.979524      19.488097      1.4914264     -1.0548108      14037.291    
    332000   1.0536061      0.0023323615  -0.00097822811  20.76816       19.203555      1.564605      -1.1940915      13884.27     
    333000   0.89891533     0.0023323615  -0.0031404253   20.819907      19.485017      1.3348893     -1.2148044      13682.233    
    334000   1.1531032      0.0023323615  -0.00057742143  21.221189      19.508831      1.7123583     -1.014483       13790.223    
    335000   1.062011       0.0023323615   0.00091469373  21.058186      19.4811        1.5770863     -1.0539426      13928.886    
    336000   1.1454754      0.0023323615   0.0017612277   21.313609      19.612579      1.7010309     -0.90563155     14116.51     
    337000   1.0290776      0.0023323615   0.0011185197   20.893437      19.365256      1.5281802     -1.1323559      14023.509    
    338000   0.9661338      0.0023323615  -0.0043694885   20.640564      19.205856      1.4347087     -1.2892419      13801.731    
    339000   0.97846667     0.0023323615  -0.0014991901   20.650055      19.197032      1.453023      -1.3795135      13743.536    
    340000   1.1243376      0.0023323615  -0.00069288261  21.141036      19.471395      1.6696413     -1.0375246      13731.105    
    341000   1.0725599      0.0023323615   0.00054503036  21.047926      19.455175      1.5927515     -1.1097177      13781.013    
    342000   0.93458067     0.0023323615  -0.00052733969  20.716631      19.328779      1.3878523     -1.1203375      13884.687    
    343000   0.93884325     0.0023323615   0.0039982689   20.664607      19.270425      1.3941822     -1.2203546      13772.517    
    344000   1.1915802      0.0023323615  -0.0036295209   21.301281      19.531785      1.7694967     -1.0850709      13794.21     
    345000   0.99663448     0.0023323615  -0.0043845138   20.963879      19.483876      1.4800022     -0.92986257     13890.453    
    346000   1.074119       0.0023323615  -0.0014679027   20.868231      19.273164      1.5950666     -1.2348185      13801.189    
    347000   1.0614546      0.0023323615   0.0018865495   20.829579      19.253319      1.5762601     -1.1941749      13749.705    
    348000   1.0234088      0.0023323615  -0.00083339232  20.863109      19.343347      1.519762      -1.0690232      13906.048    
    349000   0.90376829     0.0023323615  -0.00086910902  20.737229      19.395134      1.3420959     -1.1347369      13872.555    
    350000   0.96699201     0.0023323615   5.0702833e-06  21.025536      19.589553      1.4359831     -0.98293394     13931.268    
    351000   1.0248613      0.0023323615   0.00060807124  21.027445      19.505526      1.521919      -1.1382404      13854.454    
    352000   1.0567614      0.0023323615   0.001838521    21.080735      19.511444      1.5692906     -1.0496163      13891.389    
    353000   0.8933054      0.0023323615   0.0021115377   20.804149      19.47759       1.3265585     -0.98713802     13961.615    
    354000   0.91012326     0.0023323615  -1.2795275e-05  20.688008      19.336475      1.351533      -1.1332226      13941.809    
    355000   0.98666415     0.0023323615   0.0019770017   20.896939      19.431743      1.4651963     -1.2200022      13878.013    
    356000   1.1423983      0.0023323615  -0.00098310338  21.09188       19.395418      1.6964615     -1.0466826      13841.277    
    357000   1.0784001      0.0023323615  -0.00071418904  20.961068      19.359643      1.6014242     -1.0370571      13947.636    
    358000   1.0809767      0.0023323615  -0.00030293264  20.984358      19.379108      1.6052504     -1.100192       13860.32     
    359000   0.98346324     0.0023323615  -0.0018854534   20.937423      19.47698       1.4604429     -1.0500197      13952.253    
    360000   0.91058797     0.0023323615  -0.0020973473   20.743894      19.391671      1.3522231     -1.1463696      13913.728    
    361000   0.96225179     0.0023323615  -0.0011341422   20.754994      19.32605       1.4289439     -1.171818       13979.309    
    362000   0.8580918      0.0023323615  -0.00071649157  20.665539      19.391272      1.2742663     -1.1865966      13910.365    
    363000   1.0585827      0.0023323615  -0.0029310975   21.145394      19.573399      1.5719953     -0.90648654     13897.147    
    364000   0.90659478     0.0023323615   0.0034187167   20.853549      19.507256      1.3462933     -1.0290816      14021.574    
    365000   0.89353548     0.0023323615  -0.0024813377   20.8316        19.504699      1.3269002     -0.93480937     13971.625    
    366000   0.86032527     0.0023323615  -0.00064559873  20.882494      19.604911      1.277583      -0.9642324      13993.556    
    367000   0.99759023     0.0023323615   0.00093171814  21.315503      19.834081      1.4814215     -0.73300676     14044.348    
    368000   1.0940101      0.0023323615  -0.0014495938   21.014368      19.389763      1.624605      -1.1590012      14050.585    
    369000   1.0304638      0.0023323615   0.00073766811  20.900341      19.370102      1.5302388     -1.1158331      13904.372    
    370000   1.0184037      0.0023323615   0.001963727    20.80448       19.29215       1.5123295     -1.1385183      13905.108    
    371000   1.1243086      0.0023323615  -0.00095942699  21.162483      19.492885      1.6695982     -1.1240222      13864.602    
    372000   0.91190307     0.0023323615   0.00022408406  20.844244      19.490068      1.3541761     -1.1375042      13912.764    
    373000   0.99308744     0.0023323615  -0.0016532285   20.618737      19.144002      1.4747348     -1.3462939      13884.033    
    374000   1.0253793      0.0023323615   0.0020347979   20.81296       19.290271      1.5226883     -1.1385552      13776.701    
    375000   0.98768092     0.0023323615   0.0006689466   20.893803      19.427096      1.4667062     -1.0859351      13941.7      
    376000   0.96359778     0.0023323615   0.0016430452   20.839121      19.408178      1.4309427     -1.0613357      13856.202    
    377000   1.0372386      0.0023323615  -0.0023303253   20.932894      19.392594      1.5402993     -1.1428109      13874.331    
    378000   0.92072133     0.0023323615  -0.0025779934   21.138118      19.770847      1.3672712     -0.92844362     13999.889    
    379000   0.91561095     0.0023323615  -0.00037585193  20.654954      19.295271      1.3596823     -1.2421339      13975.917    
    380000   1.064304       0.0023323615  -0.002661618    20.928585      19.348093      1.5804914     -1.1640245      13889.947    
    381000   1.0634156      0.0023323615  -0.002421715    20.817942      19.23877       1.5791722     -1.2322781      13723.689    
    382000   1.0793421      0.0023323615   0.00060837473  20.742076      19.139254      1.602823      -1.2857314      13850.801    
    383000   1.0570139      0.0023323615  -0.0031730586   21.081905      19.512239      1.5696657     -0.9593517      13927.92     
    384000   0.92197637     0.0023323615  -0.0013158361   20.680109      19.310974      1.3691349     -1.1002471      13887.635    
    385000   1.0405861      0.0023323615   0.00066968429  20.950994      19.405723      1.5452704     -1.2008951      13863.918    
    386000   1.0782049      0.0023323615  -0.00043140983  20.898509      19.297375      1.6011342     -1.2437635      13811.047    
    387000   1.0545008      0.0023323615   5.4060829e-06  20.886791      19.320857      1.5659336     -1.1557832      13764.17     
    388000   0.90525292     0.0023323615   0.00098247681  20.733029      19.388728      1.3443006     -1.166065       14049.484    
    389000   0.97375231     0.0023323615  -0.0027677403   20.929441      19.483419      1.4460222     -1.0185983      14602.176    
    390000   1.0101258      0.0023323615  -0.00056860976  21.148885      19.648849      1.5000368     -0.84219931     14953.823    
    391000   1.1415362      0.0023323615   0.0011246062   21.325015      19.629834      1.6951813     -0.87649807     15520.031    
    392000   0.88625698     0.0023323615   0.0029914195   20.738526      19.422435      1.3160916     -0.98125126     16057.877    
    393000   0.97486653     0.0023323615  -0.0019442299   21.167002      19.719325      1.4476768     -0.86409521     16706.186    
    394000   1.0158949      0.0023323615   0.0020847004   21.209238      19.700634      1.5086039     -0.81045639     16879.351    
    395000   0.97115447     0.0023323615  -0.0049448296   21.006704      19.56454       1.4421644     -1.0284467      16400.743    
    396000   1.0707838      0.0023323615   0.0018681289   21.105918      19.515804      1.5901139     -0.9519081      16280.976    
    397000   1.1468652      0.0023323615  -0.00019423644  21.290385      19.58729       1.7030948     -0.91786607     16114.927    
    398000   1.1080974      0.0023323615   0.00081491923  21.176109      19.530584      1.6455246     -1.0150476      15055.774    
    399000   0.99481784     0.0023323615  -0.0031356222   21.114808      19.637504      1.4773045     -0.95163717     14162.516    
    400000   0.966088       0.0023323615  -0.00022729912  20.965351      19.530711      1.4346407     -1.0382411      14085.998    
    401000   0.99546388     0.0023323615  -0.0029387087   20.768609      19.290346      1.4782639     -1.1874133      13844.565    
    402000   1.1018758      0.0023323615  -0.0016820583   21.00926       19.372974      1.6362855     -1.0545503      13913.086    
    403000   0.98990325     0.0023323615   0.0041069822   20.912074      19.442068      1.4700063     -1.0892679      13903.934    
    404000   0.91441722     0.0023323615  -0.00011667726  20.723202      19.365292      1.3579096     -1.0859891      13917.684    
    405000   0.95112748     0.0023323615   7.8072089e-05  20.674073      19.261648      1.4124243     -1.2859863      13883.301    
    406000   1.0054943      0.0023323615  -0.0024365487   20.823999      19.33084       1.493159      -1.188589       13712.106    
    407000   0.9958548      0.0023323615   0.0017420141   20.788969      19.310124      1.4788444     -1.3079984      13899.278    
    408000   0.95717616     0.0023323615   0.00024773106  20.900283      19.478876      1.4214066     -1.0119936      13906.514    
    409000   0.9997437      0.0023323615   0.00014255136  20.975003      19.490384      1.4846194     -0.97651724     13952.44     
    410000   0.96974518     0.0023323615  -0.0023905256   20.757803      19.317732      1.4400716     -1.2275883      13901.55     
[...]
    861000   1.0921437      0.0023323615   0.00057060752  21.123835      19.502001      1.6218335     -1.0775587      13753.049    
    862000   0.90861717     0.0023323615   0.0028952877   20.624022      19.274726      1.3492965     -1.1908724      13906.83     
    863000   1.0802652      0.0023323615   0.0032606962   20.911672      19.307478      1.6041938     -1.2936471      14012.457    
    864000   0.98152475     0.0023323615  -0.00020416162  21.00639       19.548826      1.4575643     -0.97462586     14065.198    
    865000   0.95305664     0.0023323615  -0.0028545812   21.135681      19.720391      1.4152891     -0.96376219     13956.617    
    866000   0.92018495     0.0023323615  -0.0025603015   20.734317      19.367843      1.3664747     -1.1905413      13867.206    
    867000   0.899162       0.0023323615  -0.00017151667  20.634694      19.299438      1.3352556     -1.274712       13928.406    
    868000   0.93573819     0.0023323615  -0.0036470583   20.881387      19.491816      1.3895712     -1.0410411      13976.414    
    869000   1.0186432      0.0023323615   0.0012269726   20.881829      19.369143      1.5126852     -1.1588978      13974.927    
    870000   0.98546637     0.0023323615  -0.00053414746  20.96148       19.498062      1.4634176     -1.0328317      13942.58     
    871000   1.017135       0.0023323615  -0.0021192613   21.038091      19.527645      1.5104455     -0.98529631     13968.326    
    872000   1.0624336      0.0023323615  -0.00014520378  21.0627        19.484986      1.5777139     -1.042003       13966.898    
    873000   1.0082139      0.0023323615  -0.0013889056   20.893053      19.395856      1.4971976     -1.0575646      13889.038    
    874000   1.0209574      0.0023323615   2.9379498e-05  20.949717      19.433596      1.5161217     -1.1883877      13801.819    
    875000   1.0826785      0.0023323615  -0.00011683931  21.21414       19.606362      1.6077775     -0.89123125     14058.777    
    876000   1.1132284      0.0023323615  -0.0021398718   21.072533      19.419388      1.6531441     -1.2100815      13988.259    
    877000   0.99874552     0.0023323615   0.0018409913   20.850193      19.367056      1.4831371     -1.1473822      13833.469    
    878000   1.0524612      0.0023323615  -0.00099514204  20.952034      19.38913       1.5629049     -1.1072865      13858.294    
    879000   0.92516728     0.0023323615  -0.00013482375  20.873635      19.499761      1.3738734     -0.97118326     13890.449    
    880000   0.96237642     0.0023323615   0.00047518525  20.868424      19.439295      1.429129      -1.0464249      13896.876    
    881000   0.99514659     0.0023323615   0.00019862673  20.842755      19.364963      1.4777927     -1.2049653      13809.598    
    882000   1.0586169      0.0023323615   0.001684057    20.9412        19.369154      1.5720461     -1.16399        13896.75     
    883000   0.9379016      0.0023323615   0.00088936559  20.619528      19.226744      1.3927839     -1.2269673      13883.11     
    884000   0.87242374     0.0023323615   0.00054051705  20.683403      19.387854      1.2955493     -1.0883809      13910.71     
    885000   0.90355391     0.0023323615   0.0016626928   20.679772      19.337994      1.3417776     -1.180613       14036.167    
    886000   1.1111052      0.0023323615  -0.0041747369   21.065452      19.415461      1.6499912     -1.105346       13984.337    
    887000   1.0545532      0.0023323615   0.0022586386   20.826436      19.260425      1.5660115     -1.275754       13910.29     
    888000   1.1810935      0.0023323615  -0.0017440507   20.901145      19.147221      1.7539239     -1.4443456      13853.979    
    889000   1.024263       0.0023323615   0.00082491687  20.621382      19.100352      1.5210305     -1.3451778      13834.337    
    890000   0.87296714     0.0023323615   0.0066159672   20.753536      19.457179      1.2963562     -1.1139889      13815.908    
    891000   0.84068688     0.0023323615  -0.0019953418   20.571709      19.323289      1.24842       -1.2272944      13863.855    
    892000   1.0469525      0.0023323615   0.005597451    21.019087      19.464363      1.5547245     -1.1622403      13815.929    
    893000   1.0023406      0.0023323615  -0.0015102034   20.740611      19.252135      1.4884758     -1.2688169      13819.778    
    894000   1.0211629      0.0023323615   0.0042883039   21.006085      19.489658      1.5164269     -1.1229347      13904.004    
    895000   1.0627063      0.0023323615   0.0026685023   21.044544      19.466425      1.5781188     -1.1334492      13957.985    
    896000   0.95919256     0.0023323615  -0.0019620476   21.010469      19.586068      1.4244009     -1.0583808      13726.654    
    897000   0.90844403     0.0023323615   0.0023616719   20.643589      19.294549      1.3490394     -1.2494936      13939.735    
    898000   1.02637        0.0023323615   0.0050417308   20.965586      19.441427      1.5241595     -1.2169821      13968.885    
    899000   1.0063021      0.0023323615   0.0016999884   21.0274        19.533041      1.4943587     -0.93421305     14094.185    
    900000   1.0660733      0.0023323615  -0.00040720681  21.184729      19.601611      1.5831188     -0.99923119     14100.343    
    901000   1.0884753      0.0023323615   0.0015051574   21.15256       19.536174      1.6163859     -1.043641       14014.76     
    902000   0.99450076     0.0023323615  -0.0024525867   21.002998      19.526164      1.4768336     -1.0325783      14145.722    
    903000   0.99154479     0.0023323615   0.00027603834  20.789424      19.31698       1.472444      -1.1543325      13916.378    
    904000   1.0717237      0.0023323615   0.0040199884   21.001123      19.409613      1.5915096     -1.1242038      14006.312    
    905000   1.1583311      0.0023323615  -0.0019748563   21.324951      19.60483       1.7201217     -0.82969782     14033.951    
    906000   1.0105143      0.0023323615  -0.0012478076   21.14808       19.647467      1.5006137     -0.97358511     14261.191    
    907000   0.98138815     0.0023323615  -0.0010640548   21.243662      19.786301      1.4573614     -0.68024585     14923.577    
    908000   1.0960158      0.0023323615   0.003404252    21.247256      19.619673      1.6275835     -1.0035212      15387.844    
    909000   1.1200781      0.0023323615   0.00042110412  21.046644      19.383328      1.663316      -1.1199827      14679.797    
    910000   1.0956099      0.0023323615   0.0002110762   20.887186      19.260205      1.6269808     -1.2587481      13965.938    
    911000   0.97810951     0.0023323615   0.0018543259   20.862452      19.40996       1.4524926     -1.0768544      13880.248    
    912000   0.99469048     0.0023323615  -0.00085948432  20.585452      19.108336      1.4771154     -1.3407803      13920.38     
    913000   0.86849112     0.0023323615  -0.002754675    20.414825      19.125116      1.2897093     -1.4278044      13784.5      
    914000   0.92001188     0.0023323615   0.0010926301   20.790654      19.424437      1.3662176     -1.0649796      13868.091    
    915000   1.0314217      0.0023323615  -0.0016859047   20.872827      19.341165      1.5316613     -1.2054575      13853.889    
    916000   1.0193564      0.0023323615   0.0024477054   20.768819      19.255075      1.5137443     -1.2696226      13931.803    
    917000   1.0411859      0.0023323615  -0.0037387644   20.635956      19.089795      1.5461611     -1.3802676      13910.111    
    918000   1.0879588      0.0023323615  -0.00038073393  20.798117      19.182498      1.6156189     -1.3504873      13801.775    
    919000   1.0187769      0.0023323615  -0.0017888227   20.842198      19.329314      1.5128837     -1.2618434      13898.912    
    920000   1.0357548      0.0023323615  -0.0016423726   21.047278      19.509182      1.5380958     -1.0493463      13969.836    
    921000   0.93608324     0.0023323615  -0.0023713092   20.855517      19.465433      1.3900836     -1.1571259      13971.519    
    922000   1.0397654      0.0023323615  -0.0026500156   21.038149      19.494097      1.5440516     -1.0047336      13990.5      
    923000   0.9309604      0.0023323615   0.0027568321   21.055828      19.673351      1.3824762     -0.91958557     14096.149    
    924000   1.107705       0.0023323615  -0.0016222836   21.219291      19.574349      1.6449419     -1.0890048      13942.477    
    925000   0.9274635      0.0023323615   0.0045836875   20.770428      19.393145      1.3772833     -1.1196709      13897.176    
    926000   0.9775704      0.0023323615  -2.3365672e-05  20.861885      19.410193      1.451692      -1.135966       13881.522    
    927000   0.99344733     0.0023323615  -0.0047927511   20.745597      19.270328      1.4752693     -1.290573       13880.304    
    928000   1.0538815      0.0023323615   0.0015257563   20.999789      19.434775      1.5650141     -1.1098986      13918.51     
    929000   1.0239501      0.0023323615  -0.0010885741   20.972189      19.451623      1.5205659     -1.0808908      13933.32     
    930000   1.1320914      0.0023323615   0.00096234574  20.98108       19.299924      1.6811557     -1.0854803      13848.632    
    931000   1.0588774      0.0023323615  -0.0021211479   21.131299      19.558866      1.572433      -1.0578775      13893.852    
    932000   0.94376108     0.0023323615   0.0024883926   20.615374      19.213888      1.4014852     -1.2074881      13893.325    
    933000   0.85785084     0.0023323615   0.0029188561   20.605824      19.331915      1.2739085     -1.1259756      13877.45     
    934000   0.95537989     0.0023323615   0.0010320908   20.816059      19.39732       1.4187391     -1.1424688      13936.473    
    935000   0.84442215     0.0023323615  -0.0020435593   20.553338      19.299371      1.2539669     -1.2085789      13885.966    
    936000   1.0025956      0.0023323615  -0.00048603042  21.20785       19.718996      1.4888544     -0.85623104     14068.086    
    937000   0.91164        0.0023323615  -0.0016005265   21.007419      19.653634      1.3537854     -0.96446521     14416.132    
    938000   1.0607813      0.0023323615  -0.0024870653   20.89164       19.31638       1.5752603     -1.0860863      14406.617    
    939000   1.1468188      0.0023323615  -0.0018172539   21.018645      19.315619      1.703026      -1.2039533      14090.464    
    940000   0.94830293     0.0023323615   0.0045269348   20.724336      19.316106      1.4082299     -1.2089266      13816.668    
    941000   0.87414315     0.0023323615  -0.0042395045   20.847509      19.549406      1.2981026     -0.9930698      13881.808    
    942000   1.0977772      0.0023323615  -0.0012716766   20.800985      19.170786      1.6301992     -1.3090916      13909.169    
    943000   0.97730422     0.0023323615  -0.0022121497   20.691949      19.240652      1.4512968     -1.3730689      13774.673    
    944000   1.0809497      0.0023323615   0.00066413778  21.118948      19.513737      1.6052103     -1.1201784      13925.161    
    945000   0.99794185     0.0023323615  -0.0014954341   20.8529        19.370956      1.4819436     -1.0986662      13812.421    
    946000   1.0504352      0.0023323615   5.5450826e-05  20.852708      19.292812      1.5598962     -1.2323904      13835.325    
    947000   0.9618823      0.0023323615  -0.0012476137   20.596871      19.168476      1.4283952     -1.2551972      13847.698    
    948000   0.92757214     0.0023323615   0.0033937033   20.522225      19.14478       1.3774446     -1.3289083      13789.259    
    949000   0.96550928     0.0023323615   0.00050754769  20.874669      19.440888      1.4337813     -1.1875688      13963.015    
    950000   0.96308158     0.0023323615   0.0027390713   20.680065      19.249889      1.4301761     -1.3189353      13868.437    
    951000   0.92636383     0.0023323615   0.0018931217   20.711841      19.336191      1.3756503     -1.2389263      13812.126    
    952000   0.88212829     0.0023323615  -0.001036145    20.814431      19.50447       1.3099605     -1.1516071      13828.739    
    953000   1.0679025      0.0023323615   0.0027094716   21.035239      19.449403      1.5858352     -1.1136947      14026.664    
    954000   0.932825       0.0023323615  -0.0010340711   20.713255      19.32801       1.3852451     -1.2035858      13949.679    
    955000   0.92255334     0.0023323615  -0.0003948234   20.738273      19.368281      1.3699917     -1.2309981      13854.653    
    956000   0.91560307     0.0023323615  -0.0011174906   20.796205      19.436534      1.3596706     -0.97611526     13802.735    
    957000   1.0271496      0.0023323615   0.0038645885   20.907037      19.38172       1.5253172     -1.1192018      13885.607    
    958000   0.94265496     0.0023323615   0.0013320696   20.791454      19.391611      1.3998426     -1.0416453      13927.437    
    959000   0.93855477     0.0023323615  -0.0013711268   20.883227      19.489473      1.3937538     -1.1379343      13881.229    
    960000   1.009416       0.0023323615  -0.003811966    20.705413      19.20643       1.4989828     -1.2537425      13827.589    
    961000   1.0287021      0.0023323615   0.0005455754   20.879773      19.352151      1.5276226     -1.2243264      13836.886    
    962000   1.047445       0.0023323615   0.0041446105   21.07409       19.518634      1.5554558     -1.0578587      13864.186    
    963000   0.88813547     0.0023323615  -0.0011775267   21.018341      19.69946       1.3188812     -0.81053196     14037.02     
    964000   0.91689328     0.0023323615  -0.0032038313   21.207005      19.845418      1.3615865     -0.83861411     14118.238    
    965000   0.89584144     0.0023323615   0.0011644982   20.857098      19.526774      1.3303245     -1.0219609      13995.887    
    966000   1.0385402      0.0023323615   0.0023758862   20.877165      19.334933      1.5422323     -1.038189       14067.773    
    967000   0.95014882     0.0023323615  -0.00037094316  20.896125      19.485154      1.410971      -1.0963336      14037.537    
    968000   0.86871971     0.0023323615   0.0025570088   20.827238      19.537189      1.2900488     -0.97197981     14099.75     
    969000   0.9558192      0.0023323615  -5.2772157e-05  21.163695      19.744304      1.4193915     -0.91659035     14212.801    
    970000   0.98870561     0.0023323615  -0.0035869068   20.895585      19.427357      1.4682278     -1.003361       14150.487    
    971000   1.1034916      0.0023323615   0.0017926985   21.074497      19.435812      1.638685      -1.2214506      13982.127    
    972000   0.992265       0.0023323615  -0.0016193114   20.823324      19.34981       1.4735135     -1.1594935      13871.435    
    973000   0.98399424     0.0023323615  -0.001643067    20.972188      19.510957      1.4612314     -1.0455174      13970.991    
    974000   0.8580535      0.0023323615  -0.0012520853   20.68354       19.40933       1.2742094     -1.0868818      13929.411    
    975000   1.0310778      0.0023323615   0.00066133289  20.983352      19.452202      1.5311505     -1.008771       14101.056    
    976000   0.96458005     0.0023323615   0.00061242853  20.592512      19.160111      1.4324014     -1.379895       14125.522    
    977000   1.1095993      0.0023323615  -0.00071872572  21.011993      19.364238      1.6477549     -1.1549706      14087.831    
    978000   0.95571364     0.0023323615  -0.004941201    21.076236      19.657002      1.4192348     -0.94465414     13951.744    
    979000   0.84991829     0.0023323615  -0.0026584967   20.907244      19.645115      1.2621287     -0.97215348     14145.615    
    980000   0.90627797     0.0023323615  -0.0011767045   20.694475      19.348652      1.3458228     -1.0898885      14140.948    
    981000   0.99394067     0.0023323615  -0.00043758245  20.759078      19.283076      1.4760019     -1.185539       14421.233    
    982000   1.1216594      0.0023323615   0.00034871064  21.268292      19.602628      1.6656643     -1.0297891      14273.857    
    983000   1.0504517      0.0023323615   0.0024176373   20.875528      19.315607      1.5599207     -1.2409685      13861.949    
    984000   1.0923924      0.0023323615  -0.002365404    21.271086      19.648883      1.6222028     -1.0642267      13950.611    
    985000   1.0526043      0.0023323615  -0.0022923926   21.081196      19.518079      1.5631174     -1.0621632      13935.329    
    986000   1.1123032      0.0023323615   0.00073397751  21.063608      19.411838      1.6517702     -1.0831823      14085.279    
    987000   1.0345242      0.0023323615   0.00035517247  20.922483      19.386215      1.5362685     -1.0642664      14067.598    
    988000   1.0109657      0.0023323615  -0.0035820049   20.675547      19.174262      1.5012841     -1.3406156      13923.935    
    989000   0.83295275     0.0023323615  -0.0013760488   20.782171      19.545236      1.2369348     -0.96870641     14020.058    
    990000   0.7915974      0.0023323615   0.0034645949   20.520207      19.344685      1.1755221     -1.1233992      14076.884    
    991000   0.7705103      0.0023323615   4.8583673e-05  20.397763      19.253555      1.1442078     -1.2138533      14048.675    
    992000   1.0061644      0.0023323615  -0.00017866602  20.914027      19.419873      1.4941541     -1.0633375      13960.174    
    993000   1.0175131      0.0023323615   0.00064364957  20.897228      19.386221      1.5110069     -1.1123953      13899.442    
    994000   0.94449674     0.0023323615   0.0037433903   20.913569      19.510992      1.4025777     -1.0682002      13935.958    
    995000   1.1065858      0.0023323615   0.0032124859   21.087493      19.444213      1.6432799     -1.0785332      14051.484    
    996000   1.161317       0.0023323615   0.0066680145   20.982906      19.25835       1.7245558     -1.3284119      13938.524    
    997000   1.2496839      0.0023323615  -0.00081199031  21.269599      19.413819      1.8557806     -1.1339205      13897.853    
    998000   1.0933702      0.0023323615  -0.00073666418  20.961609      19.337954      1.6236548     -1.2860471      13820.232    
    999000   0.90952672     0.0023323615   0.0017102685   20.781144      19.430497      1.3506472     -1.1231385      13913.763    
   1000000   1.025382       0.0023323615  -0.0012416339   20.937716      19.415023      1.5226923     -1.0866077      13925.002    
Loop time of 70.9255 on 1 procs for 1000000 steps with 100 atoms

Performance: 6090895.280 tau/day, 14099.295 timesteps/s
99.9% CPU use with 1 MPI tasks x 1 OpenMP threads

MPI task timing breakdown:
Section |  min time  |  avg time  |  max time  |%varavg| %total
---------------------------------------------------------------
Pair    | 57.454     | 57.454     | 57.454     |   0.0 | 81.01
Bond    | 1.434      | 1.434      | 1.434      |   0.0 |  2.02
Neigh   | 5.1522     | 5.1522     | 5.1522     |   0.0 |  7.26
Comm    | 3.1958     | 3.1958     | 3.1958     |   0.0 |  4.51
Output  | 0.27268    | 0.27268    | 0.27268    |   0.0 |  0.38
Modify  | 3.0005     | 3.0005     | 3.0005     |   0.0 |  4.23
Other   |            | 0.4166     |            |       |  0.59

Nlocal:            100 ave         100 max         100 min
Histogram: 1 0 0 0 0 0 0 0 0 0
Nghost:            302 ave         302 max         302 min
Histogram: 1 0 0 0 0 0 0 0 0 0
Neighs:           4850 ave        4850 max        4850 min
Histogram: 1 0 0 0 0 0 0 0 0 0

Total # of neighbors = 4850
Ave neighs/atom = 48.5
Ave special neighs/atom = 1.98
Neighbor list builds = 97974
Dangerous builds = 80743

write_data      ${outputfile_assembled} nofix nocoeff
write_data      7_assembled.data nofix nocoeff
System init for write_data ...
Generated 0 of 6 mixed pair_coeff terms from geometric mixing rule

Total wall time: 0:01:12
