LAMMPS (23 Jun 2022 - Update 1)
OMP_NUM_THREADS environment is not set. Defaulting to 1 thread. (src/comm.cpp:98)
  using 1 OpenMP thread(s) per MPI task


variable        runtime equal 1000000
variable		subsample_rate equal 1000

variable		outputfile_created string '3_created.data'
variable		outputfile_relaxed string '5_relaxed.data'
variable		outputfile_selfasb string '6_a_self_assemble.lammpstrj'
variable		outputfile_trajlin string '6_b_trajlin.data'
variable		outputfile_assembled string '7_assembled.data'

units           lj
atom_style      full
dimension       3
boundary        p p p
timestep        0.005

read_data       ${outputfile_created}
read_data       3_created.data
Reading data file ...
  orthogonal box = (0 0 0) to (35 35 35)
  1 by 1 by 1 MPI processor grid
  reading atoms ...
  100 atoms
  reading velocities ...
  100 velocities
  scanning bonds ...
  1 = max bonds/atom
  reading bonds ...
  99 bonds
Finding 1-2 1-3 1-4 neighbors ...
  special bond factors lj:    0        0        0       
  special bond factors coul:  0        0        0       
     2 = max # of 1-2 neighbors
     2 = max # of 1-3 neighbors
     4 = max # of 1-4 neighbors
     6 = max # of special neighbors
  special bonds CPU = 0.000 seconds
  read_data CPU = 0.007 seconds

bond_style      fene
bond_coeff      * 30.0 1.5 1.0 1.0
special_bonds   fene
Finding 1-2 1-3 1-4 neighbors ...
  special bond factors lj:    0        1        1       
  special bond factors coul:  0        1        1       
     2 = max # of 1-2 neighbors
     6 = max # of special neighbors
  special bonds CPU = 0.000 seconds

variable        Temp equal 1.0
variable        velSeed equal 926458

velocity        all create ${Temp} ${velSeed}
velocity        all create 1 ${velSeed}
velocity        all create 1 926458

### Output
thermo_style    custom step temp density press etotal pe ke epair spcpu
thermo          1000

###########################################################################
# Soft relaxation (to remove overlaps of particles)
######################################################################

pair_style      soft 1.0
pair_coeff      * * 0.0
variable        prefactor equal ramp(0,300)
fix             rampSoft all adapt 1 pair soft a * * v_prefactor

minimize        0.0 1.0e-8 1000 100000
WARNING: Using 'neigh_modify every 1 delay 0 check yes' setting during minimization (src/min.cpp:187)
Generated 0 of 6 mixed pair_coeff terms from geometric mixing rule
Neighbor list info ...
  update every 1 steps, delay 0 steps, check yes
  max neighbors/atom: 2000, page size: 100000
  master list distance cutoff = 1.3
  ghost atom cutoff = 1.3
  binsize = 0.65, bins = 54 54 54
  1 neighbor lists, perpetual/occasional/extra = 1 0 0
  (1) pair soft, perpetual
      attributes: half, newton on
      pair build: half/bin/newton
      stencil: half/bin/3d
      bin: standard
WARNING: Communication cutoff 1.3 is shorter than a bond length based estimate of 1.7550000000000001. This may lead to errors. (src/comm.cpp:727)
Per MPI rank memory allocation (min/avg/max) = 8.346 | 8.346 | 8.346 Mbytes
   Step          Temp         Density         Press          TotEng         PotEng         KinEng         E_pair         S/CPU     
         0   1              0.0023323615  -0.0039617958   21.524174      20.039174      1.485          0              0            
       362   1              0.0023323615   0.0023090379   21.485548      20.000548      1.485          0              70389.671    
Loop time of 0.00514524 on 1 procs for 362 steps with 100 atoms

99.5% CPU use with 1 MPI tasks x 1 OpenMP threads

Minimization stats:
  Stopping criterion = force tolerance
  Energy initial, next-to-last, final = 
      20.0391741078675   20.0005480767337   20.0005480767337
  Force two-norm initial, final = 11.878422 7.9509778e-09
  Force max component initial, final = 6.6117807 1.3572772e-09
  Final line search alpha, max atom move = 1 1.3572772e-09
  Iterations, force evaluations = 362 738

MPI task timing breakdown:
Section |  min time  |  avg time  |  max time  |%varavg| %total
---------------------------------------------------------------
Pair    | 0.00021334 | 0.00021334 | 0.00021334 |   0.0 |  4.15
Bond    | 0.0023221  | 0.0023221  | 0.0023221  |   0.0 | 45.13
Neigh   | 0.0014384  | 0.0014384  | 0.0014384  |   0.0 | 27.96
Comm    | 0.00018322 | 0.00018322 | 0.00018322 |   0.0 |  3.56
Output  | 0          | 0          | 0          |   0.0 |  0.00
Modify  | 0          | 0          | 0          |   0.0 |  0.00
Other   |            | 0.0009881  |            |       | 19.21

Nlocal:            100 ave         100 max         100 min
Histogram: 1 0 0 0 0 0 0 0 0 0
Nghost:             20 ave          20 max          20 min
Histogram: 1 0 0 0 0 0 0 0 0 0
Neighs:              0 ave           0 max           0 min
Histogram: 1 0 0 0 0 0 0 0 0 0

Total # of neighbors = 0
Ave neighs/atom = 0
Ave special neighs/atom = 1.98
Neighbor list builds = 17
Dangerous builds = 0

fix             nvtSoft all nvt temp ${Temp} ${Temp} 0.5
fix             nvtSoft all nvt temp 1 ${Temp} 0.5
fix             nvtSoft all nvt temp 1 1 0.5
run             100000
Generated 0 of 6 mixed pair_coeff terms from geometric mixing rule
WARNING: Communication cutoff 1.3 is shorter than a bond length based estimate of 1.7550000000000001. This may lead to errors. (src/comm.cpp:727)
Per MPI rank memory allocation (min/avg/max) = 7.221 | 7.221 | 7.221 Mbytes
   Step          Temp         Density         Press          TotEng         PotEng         KinEng         E_pair         S/CPU     
       362   1              0.0023323615   0.0023090379   21.485548      20.000548      1.485          0              0            
      1000   0.90989032     0.0023323615  -0.0021940042   21.776974      20.425787      1.3511871      0.00036425437  78331.447    
      2000   0.86546688     0.0023323615   0.0034714157   21.677128      20.39191       1.2852183      0.0025814786   77280.135    
      3000   0.98199538     0.0023323615   0.0028144228   21.866132      20.407869      1.4582631      0.0011756043   74199.713    
      4000   1.004495       0.0023323615  -0.0014058211   21.945624      20.453949      1.4916751      0.011986179    74210.963    
      5000   1.1222705      0.0023323615   0.0044495116   21.986385      20.319813      1.6665718      0.0050317639   72758.599    
      6000   1.0538243      0.0023323615   0.0023957538   21.985713      20.420784      1.564929       0.012100514    74662.213    
      7000   1.0210598      0.0023323615  -0.00038820026  21.904665      20.388391      1.5162738      0              76326.445    
      8000   0.94819751     0.0023323615   0.0024943091   21.747889      20.339816      1.4080733      0              75958.48     
      9000   0.92364502     0.0023323615   0.0020053029   21.724166      20.352554      1.3716129      1.7780894e-05  75380.866    
     10000   0.86685188     0.0023323615   0.00078277366  21.644879      20.357604      1.287275       0.0098636418   75693.844    
     11000   1.0057103      0.0023323615   0.00010113276  21.8558        20.362321      1.4934798      0.020705341    75196.75     
     12000   0.97901664     0.0023323615  -0.0026996968   21.871206      20.417366      1.4538397      0.0052928539   75451.807    
     13000   0.97718436     0.0023323615  -6.1641422e-06  21.963706      20.512587      1.4511188      0.025022446    75451.807    
     14000   1.0530014      0.0023323615  -0.0009993112   21.947994      20.384287      1.5637071      0.0020860456   74687.976    
     15000   0.99094527     0.0023323615   0.0011068478   21.895146      20.423592      1.4715537      0.0015091113   75558.559    
     16000   0.91285091     0.0023323615  -0.00025424173  21.87524       20.519657      1.3555836      0.0047853639   75245.162    
     17000   0.82806978     0.0023323615  -0.00054698156  21.701984      20.472301      1.2296836      0              75633.788    
     18000   1.043278       0.0023323615  -6.6143919e-05  22.003299      20.454031      1.5492679      0.0034319132   76303.341    
     19000   1.0879249      0.0023323615  -0.0017804642   21.998985      20.383416      1.6155685      0.015376175    74699.039    
     20000   1.1144506      0.0023323615   0.0025198298   22.190904      20.535944      1.6549592      0              76251.402    
     21000   1.0427751      0.0023323615   0.0011345349   22.099492      20.550971      1.548521       0.00040047813  76164.305    
     22000   1.0586695      0.0023323615   0.0017882747   22.05673       20.484606      1.5721242      0              76021.243    
     23000   1.0058426      0.0023323615  -0.0055245362   21.954628      20.460951      1.4936763      0.0027619031   74007.1      
     24000   0.98273442     0.0023323615   0.0015147357   21.862067      20.402707      1.4593606      0              75652.081    
     25000   0.95835343     0.0023323615   0.0017808774   21.937761      20.514606      1.4231548      0.00020839942  75221.175    
     26000   0.93993778     0.0023323615  -0.0021777292   21.884849      20.489042      1.3958076      0.0088889834   75891.311    
     27000   0.9308188      0.0023323615  -0.00011239942  21.842252      20.459986      1.3822659      0.021612409    75171.664    
     28000   1.0149581      0.0023323615   0.0041996387   21.906846      20.399633      1.5072129      0.0064059022   75551.235    
     29000   0.92841138     0.0023323615  -2.5398808e-05  21.987185      20.608494      1.3786909      0.0046112484   75449.929    
     30000   1.021043       0.0023323615   0.001589158    22.097958      20.581709      1.5162489      0.016799508    73015.831    
     31000   1.0465985      0.0023323615  -0.0021744286   22.037917      20.483718      1.5541987      0.0057879149   75610.13     
     32000   0.98907108     0.0023323615  -0.0015558606   22.044089      20.575318      1.4687705      0.009448173    75004.57     
     33000   1.0918536      0.0023323615  -0.0025643847   22.039275      20.417873      1.6214025      0              74158.087    
     34000   0.99801543     0.0023323615   0.0016279766   21.932339      20.450286      1.4820529      0.017384617    76610.107    
     35000   1.0352271      0.0023323615  -0.0052971711   22.076004      20.538692      1.5373122      0.00010473809  75220.948    
     36000   1.1141579      0.0023323615  -0.00093279925  22.222491      20.567966      1.6545245      0.00033678641  76429.016    
     37000   1.0369415      0.0023323615   0.00013065175  22.217841      20.677983      1.5398581      0.013788831    75382.633    
     38000   1.0515596      0.0023323615   0.0021717558   22.070766      20.5092        1.561566       0.0067894678   76201.217    
     39000   1.0238495      0.0023323615   0.00026414509  22.040141      20.519725      1.5204165      0.00044464649  75141.67     
     40000   1.0749111      0.0023323615  -0.0026849368   22.039327      20.443084      1.596243       0.012651334    73790.658    
     41000   0.99070886     0.0023323615  -0.0030385564   22.03241       20.561207      1.4712027      0.00092855646  76663.829    
     42000   0.95315224     0.0023323615   0.0019788197   21.965263      20.549832      1.4154311      0.020233689    75018.214    
     43000   1.0644183      0.0023323615  -0.0011168725   22.287172      20.706511      1.5806611      0.039694129    75229.68     
     44000   1.0253747      0.0023323615  -0.006676522    22.066233      20.543552      1.5226814      0              67797.474    
     45000   0.94179556     0.0023323615  -0.0047206018   21.970644      20.572077      1.3985664      0.019869988    74146.738    
     46000   1.0083495      0.0023323615  -0.0017646918   21.972114      20.474715      1.497399       0.00026040605  75160.856    
     47000   0.98767959     0.0023323615  -0.00080218158  22.091674      20.62497       1.4667042      0.024266258    74941.16     
     48000   1.1473449      0.0023323615  -0.0025885687   22.080512      20.376705      1.7038072      0.00065962995  75278.927    
     49000   1.0679312      0.0023323615   0.0017688272   21.970482      20.384604      1.5858779      0.014142422    76479.964    
     50000   0.9581935      0.0023323615   0.0014398836   21.955202      20.532284      1.4229173      0.0055011948   75974.09     
     51000   1.0215759      0.0023323615  -0.00093292688  21.934681      20.41764       1.5170402      0              75577.952    
     52000   0.98079591     0.0023323615   0.0040701936   21.977374      20.520892      1.4564819      0.0020862422   75965.993    
     53000   1.0090927      0.0023323615   0.0013324753   22.095438      20.596935      1.4985027      0              75523.459    
     54000   0.97519627     0.0023323615   0.0013260734   22.070151      20.621984      1.4481665      0.026885444    76166.973    
     55000   1.1805087      0.0023323615  -0.001586238    22.424088      20.671033      1.7530554      0.024690954    76142.331    
     56000   0.98387121     0.0023323615   0.0037155145   22.104425      20.643376      1.4610487      0.01435493     75503.404    
     57000   1.0723812      0.0023323615  -0.0037916262   22.122726      20.53024       1.592486       0.013635549    76305.967    
     58000   1.0152349      0.0023323615   0.00021908047  22.082827      20.575203      1.5076238      0.00077375639  75968.25     
     59000   1.1424502      0.0023323615  -0.0052108657   22.30072       20.604182      1.6965385      0.013308184    76781.834    
     60000   1.0359703      0.0023323615  -0.00097887545  22.188218      20.649802      1.538416       0.00011346294  75270.247    
     61000   1.1646839      0.0023323615  -0.002085017    22.239945      20.51039       1.7295556      0.012918477    77365.548    
     62000   1.101836       0.0023323615   0.0010338878   22.171386      20.53516       1.6362265      0.001396566    76294.708    
     63000   0.96616435     0.0023323615   0.00097550571  21.903821      20.469067      1.4347541      0.013027663    77396.685    
     64000   1.0068907      0.0023323615  -0.0020278726   22.061652      20.566419      1.4952327      0.013750276    76032.132    
     65000   0.98723233     0.0023323615   0.0022441476   22.031073      20.565033      1.46604        0.0066686189   76318.511    
     66000   1.0273881      0.0023323615  -0.0003515278   22.183579      20.657908      1.5256713      0              74604.067    
     67000   0.96528212     0.0023323615  -0.00014822656  21.9396        20.506156      1.4334439      0.010365557    76657.059    
     68000   1.069702       0.0023323615   9.4754668e-05  22.081119      20.492611      1.5885075      0.00049153926  73863.176    
     69000   1.1229502      0.0023323615   0.0011504079   22.200329      20.532748      1.6675811      0.0068454249   76604.813    
     70000   1.0062775      0.0023323615  -0.00085311964  22.094021      20.599699      1.4943221      0.013222355    74679.593    
     71000   1.0906935      0.0023323615   0.00015260357  22.145362      20.525682      1.6196798      0.018338513    75439.433    
     72000   1.010401       0.0023323615  -6.0487182e-06  22.154105      20.653659      1.5004455      0.0013793953   74503.945    
     73000   1.1177599      0.0023323615  -0.0034084797   22.254435      20.594562      1.6598735      0.00011231735  77288.15     
     74000   0.9768019      0.0023323615   0.00016143893  22.07312       20.622569      1.4505508      0.0084515956   75149.248    
     75000   1.1360996      0.0023323615   0.002159116    22.161595      20.474487      1.6871079      0.0089909162   75655.292    
     76000   0.97379329     0.0023323615  -0.00068458621  21.988928      20.542845      1.446083       0              75181.057    
     77000   0.94876793     0.0023323615  -0.0016073976   21.923496      20.514575      1.4089204      0.017745108    75430.943    
     78000   0.83947996     0.0023323615  -0.00062768559  21.726727      20.480099      1.2466277      0.0054510099   75902.907    
     79000   1.0090614      0.0023323615  -0.00080262643  22.068192      20.569736      1.4984562      0.00023011166  76465.145    
     80000   1.1217643      0.0023323615  -0.0038177864   22.367902      20.702082      1.66582        0.032902439    75979.176    
     81000   1.0240158      0.0023323615   0.00023547123  22.031597      20.510933      1.5206635      0.0068767308   75426.778    
     82000   1.003236       0.0023323615  -0.0022802982   21.894199      20.404393      1.4898055      0.019136282    74477.871    
     83000   1.0554159      0.0023323615   0.004011718    22.104562      20.537269      1.5672927      0.0080869707   74078.996    
     84000   0.83527346     0.0023323615  -0.0034122221   21.874648      20.634267      1.2403811      0.0030083664   75616.145    
     85000   1.036002       0.0023323615   0.0013573923   21.962923      20.42446       1.5384629      0.015709144    76076.469    
     86000   0.9432002      0.0023323615  -0.0032183248   21.913588      20.512936      1.4006523      0.013730309    75784.652    
     87000   0.95566008     0.0023323615  -0.00049614223  21.91653       20.497375      1.4191552      0.0035862035   75110.736    
     88000   0.93373351     0.0023323615  -0.00097093893  21.870485      20.483891      1.3865943      0.0018212145   74721.578    
     89000   0.9684944      0.0023323615  -0.00047342045  21.973429      20.535215      1.4382142      0.00087524744  74991.554    
     90000   0.98293324     0.0023323615  -0.0032204602   22.050919      20.591263      1.4596559      0.015353933    76338.996    
     91000   1.0832827      0.0023323615   0.0048517083   22.11977       20.511095      1.6086749      0.0052867789   77059.08     
     92000   0.85899662     0.0023323615  -0.0013049519   21.765697      20.490087      1.27561        0.0024124001   76314.719    
     93000   0.96176266     0.0023323615  -4.4223672e-05  21.874222      20.446004      1.4282176      0.0045653365   77018.527    
     94000   0.96019503     0.0023323615   0.00024459347  21.944954      20.519064      1.4258896      3.8053462e-05  76438.381    
     95000   0.94702149     0.0023323615  -0.0033658915   21.86315       20.456823      1.4063269      0              76846.744    
     96000   0.91119348     0.0023323615  -0.0013197298   21.825018      20.471896      1.3531223      0.00043282989  75703.666    
     97000   1.0016687      0.0023323615  -0.0019514304   22.013024      20.525546      1.487478       0.0048369955   75080.74     
     98000   1.02143        0.0023323615  -0.0057874974   22.177965      20.661142      1.5168235      0              74028.451    
     99000   1.032786       0.0023323615   0.0018228259   21.975336      20.441649      1.5336871      7.1595851e-05  77285.397    
    100000   1.0594928      0.0023323615   0.0036169719   22.011024      20.437677      1.5733468      0.00032948157  75610.588    
    100362   1.1904942      0.0023323615  -0.00089755607  22.316856      20.548972      1.7678839      0.00063845255  74914.443    
Loop time of 1.32479 on 1 procs for 100000 steps with 100 atoms

Performance: 32608912.774 tau/day, 75483.594 timesteps/s
99.2% CPU use with 1 MPI tasks x 1 OpenMP threads

MPI task timing breakdown:
Section |  min time  |  avg time  |  max time  |%varavg| %total
---------------------------------------------------------------
Pair    | 0.049649   | 0.049649   | 0.049649   |   0.0 |  3.75
Bond    | 0.12633    | 0.12633    | 0.12633    |   0.0 |  9.54
Neigh   | 0.80538    | 0.80538    | 0.80538    |   0.0 | 60.79
Comm    | 0.055562   | 0.055562   | 0.055562   |   0.0 |  4.19
Output  | 0.0011641  | 0.0011641  | 0.0011641  |   0.0 |  0.09
Modify  | 0.2523     | 0.2523     | 0.2523     |   0.0 | 19.04
Other   |            | 0.03441    |            |       |  2.60

Nlocal:            100 ave         100 max         100 min
Histogram: 1 0 0 0 0 0 0 0 0 0
Nghost:             60 ave          60 max          60 min
Histogram: 1 0 0 0 0 0 0 0 0 0
Neighs:             36 ave          36 max          36 min
Histogram: 1 0 0 0 0 0 0 0 0 0

Total # of neighbors = 36
Ave neighs/atom = 0.36
Ave special neighs/atom = 1.98
Neighbor list builds = 9821
Dangerous builds = 8265
unfix           nvtSoft
unfix           rampSoft
reset_timestep  0

write_data      ${outputfile_relaxed}
write_data      5_relaxed.data
System init for write_data ...
Generated 0 of 6 mixed pair_coeff terms from geometric mixing rule
WARNING: Communication cutoff 1.3 is shorter than a bond length based estimate of 1.7550000000000001. This may lead to errors. (src/comm.cpp:727)
WARNING: Not all mixed pair coeffs generated from mixing. Use write_data with 'pair ij' option to store all pair coeffs. (src/write_data.cpp:309)

###########################################################################
# Full LJ with Coulomb
######################################################################

# Cutoffs and parameters:
# - Values: Marcel Verkade's Bachelor Thesis
# - Mapping to atom groups: Patrick Onck's paper
# - 1: aliphatic, 2: aromatic, 3: anion, 4: cation
# pair_style	lj/cut/coul/cut <lj_cut_global> <coul_cut_global>
# pair_coeff	<type_1>  <type_2>  <eps>  <sigma>  <r_cut_lj>  <r_cut_coul>

# Problem: Onck's model is much more complex, and Marcel has no sigma reported
# Using sigma=1 randomly

variable		glob_ljeps equal 1.0
variable		glob_ljsig 	equal 1.0
variable		glob_coulcut equal 10.0
variable		att_ljcut equal 2.50
variable		rep_ljcut equal 1.12

pair_style		lj/cut/coul/cut 						${att_ljcut} 	${glob_coulcut}
pair_style		lj/cut/coul/cut 						2.5 	${glob_coulcut}
pair_style		lj/cut/coul/cut 						2.5 	10
pair_coeff		1 1 	${glob_ljeps} 	${glob_ljsig}	${att_ljcut} 	${glob_coulcut}
pair_coeff		1 1 	1 	${glob_ljsig}	${att_ljcut} 	${glob_coulcut}
pair_coeff		1 1 	1 	1	${att_ljcut} 	${glob_coulcut}
pair_coeff		1 1 	1 	1	2.5 	${glob_coulcut}
pair_coeff		1 1 	1 	1	2.5 	10
pair_coeff		1 2 	${glob_ljeps} 	${glob_ljsig}	${att_ljcut} 	${glob_coulcut}
pair_coeff		1 2 	1 	${glob_ljsig}	${att_ljcut} 	${glob_coulcut}
pair_coeff		1 2 	1 	1	${att_ljcut} 	${glob_coulcut}
pair_coeff		1 2 	1 	1	2.5 	${glob_coulcut}
pair_coeff		1 2 	1 	1	2.5 	10
pair_coeff		1 3 	${glob_ljeps} 	${glob_ljsig}	${rep_ljcut} 	${glob_coulcut}
pair_coeff		1 3 	1 	${glob_ljsig}	${rep_ljcut} 	${glob_coulcut}
pair_coeff		1 3 	1 	1	${rep_ljcut} 	${glob_coulcut}
pair_coeff		1 3 	1 	1	1.12 	${glob_coulcut}
pair_coeff		1 3 	1 	1	1.12 	10
pair_coeff		1 4 	${glob_ljeps} 	${glob_ljsig}	${rep_ljcut} 	${glob_coulcut}
pair_coeff		1 4 	1 	${glob_ljsig}	${rep_ljcut} 	${glob_coulcut}
pair_coeff		1 4 	1 	1	${rep_ljcut} 	${glob_coulcut}
pair_coeff		1 4 	1 	1	1.12 	${glob_coulcut}
pair_coeff		1 4 	1 	1	1.12 	10
pair_coeff		2 2 	${glob_ljeps} 	${glob_ljsig}	${att_ljcut} 	${glob_coulcut}
pair_coeff		2 2 	1 	${glob_ljsig}	${att_ljcut} 	${glob_coulcut}
pair_coeff		2 2 	1 	1	${att_ljcut} 	${glob_coulcut}
pair_coeff		2 2 	1 	1	2.5 	${glob_coulcut}
pair_coeff		2 2 	1 	1	2.5 	10
pair_coeff		2 3 	${glob_ljeps} 	${glob_ljsig}	${rep_ljcut} 	${glob_coulcut}
pair_coeff		2 3 	1 	${glob_ljsig}	${rep_ljcut} 	${glob_coulcut}
pair_coeff		2 3 	1 	1	${rep_ljcut} 	${glob_coulcut}
pair_coeff		2 3 	1 	1	1.12 	${glob_coulcut}
pair_coeff		2 3 	1 	1	1.12 	10
pair_coeff		2 4 	${glob_ljeps} 	${glob_ljsig}	${att_ljcut} 	${glob_coulcut}
pair_coeff		2 4 	1 	${glob_ljsig}	${att_ljcut} 	${glob_coulcut}
pair_coeff		2 4 	1 	1	${att_ljcut} 	${glob_coulcut}
pair_coeff		2 4 	1 	1	2.5 	${glob_coulcut}
pair_coeff		2 4 	1 	1	2.5 	10
pair_coeff		3 3 	${glob_ljeps} 	${glob_ljsig}	${rep_ljcut} 	${glob_coulcut}
pair_coeff		3 3 	1 	${glob_ljsig}	${rep_ljcut} 	${glob_coulcut}
pair_coeff		3 3 	1 	1	${rep_ljcut} 	${glob_coulcut}
pair_coeff		3 3 	1 	1	1.12 	${glob_coulcut}
pair_coeff		3 3 	1 	1	1.12 	10
pair_coeff		3 4 	${glob_ljeps} 	${glob_ljsig}	${att_ljcut} 	${glob_coulcut}
pair_coeff		3 4 	1 	${glob_ljsig}	${att_ljcut} 	${glob_coulcut}
pair_coeff		3 4 	1 	1	${att_ljcut} 	${glob_coulcut}
pair_coeff		3 4 	1 	1	2.5 	${glob_coulcut}
pair_coeff		3 4 	1 	1	2.5 	10
pair_coeff		4 4 	${glob_ljeps} 	${glob_ljsig}	${rep_ljcut} 	${glob_coulcut}
pair_coeff		4 4 	1 	${glob_ljsig}	${rep_ljcut} 	${glob_coulcut}
pair_coeff		4 4 	1 	1	${rep_ljcut} 	${glob_coulcut}
pair_coeff		4 4 	1 	1	1.12 	${glob_coulcut}
pair_coeff		4 4 	1 	1	1.12 	10


fix             noDriftRot 	all momentum 10 linear 1 1 1 angular
fix             nvt1 		all nvt temp ${Temp} ${Temp} 0.5
fix             nvt1 		all nvt temp 1 ${Temp} 0.5
fix             nvt1 		all nvt temp 1 1 0.5

# dump          assemble 	all custom 1000 				${outputfile_selfasb} id type xu yu zu vx vy vz
dump            lindump 	all custom ${subsample_rate} 	${outputfile_trajlin} id type xu yu zu vx vy vz
dump            lindump 	all custom 1000 	${outputfile_trajlin} id type xu yu zu vx vy vz
dump            lindump 	all custom 1000 	6_b_trajlin.data id type xu yu zu vx vy vz

run             ${runtime}
run             1000000
Generated 0 of 6 mixed pair_coeff terms from geometric mixing rule
Neighbor list info ...
  update every 1 steps, delay 10 steps, check yes
  max neighbors/atom: 2000, page size: 100000
  master list distance cutoff = 10.3
  ghost atom cutoff = 10.3
  binsize = 5.15, bins = 7 7 7
  1 neighbor lists, perpetual/occasional/extra = 1 0 0
  (1) pair lj/cut/coul/cut, perpetual
      attributes: half, newton on
      pair build: half/bin/newton
      stencil: half/bin/3d
      bin: standard
Per MPI rank memory allocation (min/avg/max) = 7.712 | 7.712 | 7.712 Mbytes
   Step          Temp         Density         Press          TotEng         PotEng         KinEng         E_pair         S/CPU     
         0   1.1904942      0.0023323615  -0.0013302873   21.904298      20.136414      1.7678839     -0.41191977     0            
      1000   0.97540667     0.0023323615  -0.00062078067  21.294527      19.846048      1.4484789     -0.60946897     33572.335    
      2000   1.1103211      0.0023323615   0.0044353124   21.456578      19.807751      1.6488269     -0.79607548     31914.719    
      3000   1.0955799      0.0023323615  -0.00016517274  21.327131      19.700195      1.6269361     -0.85200659     28688.695    
      4000   0.95536846     0.0023323615   0.0011360115   20.676095      19.257373      1.4187222     -1.1384922      23111.586    
      5000   1.1571174      0.0023323615   0.0039597712   21.082634      19.364315      1.7183193     -1.1567435      19696.639    
      6000   1.0735568      0.0023323615   0.0014173051   20.764993      19.170761      1.5942319     -1.3548075      18628.749    
      7000   0.83801071     0.0023323615   0.00012926255  20.78376       19.539314      1.2444459     -1.0707492      18553.662    
      8000   0.78568852     0.0023323615   0.0012903025   20.452744      19.285997      1.1667475     -1.3032988      18647.442    
      9000   0.89192211     0.0023323615   0.0025974746   20.839043      19.514538      1.3245043     -1.1377143      18566.117    
     10000   0.96184275     0.0023323615  -0.0048217063   20.648788      19.220452      1.4283365     -1.212301       18552.797    
     11000   0.98625993     0.0023323615  -0.0019905798   20.764971      19.300375      1.464596      -1.224499       18734.33     
     12000   0.96120602     0.0023323615   0.0013510214   21.057298      19.629907      1.4273909     -0.94169928     18866.938    
     13000   1.1269586      0.0023323615   0.00078406923  21.152807      19.479273      1.6735335     -1.0923082      18868.101    
     14000   1.0395744      0.0023323615   0.005523645    20.753328      19.20956       1.543768      -1.2845249      18730.533    
     15000   0.87205904     0.0023323615  -0.0052853852   20.551653      19.256646      1.2950077     -1.2449722      18764.746    
     16000   0.87799363     0.0023323615  -0.00078707504  20.827293      19.523472      1.3038205     -1.0522695      18682.929    
     17000   1.050394       0.0023323615  -0.0033448391   20.903658      19.343823      1.5598352     -1.0897406      19209.497    
     18000   0.9636319      0.0023323615  -0.0056964208   21.028947      19.597953      1.4309934     -0.97565725     19894.781    
     19000   1.0197987      0.0023323615   0.00055765289  21.01891       19.504509      1.5144011     -1.0377248      20052.361    
     20000   1.0785924      0.0023323615   0.0018023518   21.139269      19.537559      1.6017097     -1.0618324      19342.317    
     21000   0.87545765     0.0023323615  -0.0028422531   20.881167      19.581112      1.3000546     -1.0685134      18841.388    
     22000   0.91453088     0.0023323615   4.5588005e-05  20.740482      19.382404      1.3580784     -1.1146182      18827.83     
     23000   0.89917535     0.0023323615  -0.0025136131   20.768791      19.433516      1.3352754     -1.1171277      18710.874    
     24000   1.0917863      0.0023323615  -0.0026210342   21.201482      19.580179      1.6213027     -1.0065092      18664.183    
     25000   1.1651188      0.0023323615  -0.0023986615   21.259275      19.529074      1.7302014     -1.1532287      18734.485    
     26000   0.92316501     0.0023323615  -0.0039576002   20.733752      19.362852      1.3709        -1.1483904      18624.786    
     27000   0.87982701     0.0023323615  -0.0050672374   20.706005      19.399462      1.3065431     -1.2226324      18746.628    
     28000   1.0865602      0.0023323615   0.00032112181  21.116488      19.502946      1.6135419     -1.0254315      18636.13     
     29000   0.93182556     0.0023323615   0.0014974574   20.777537      19.393776      1.383761      -1.0508409      18764.507    
     30000   1.1563458      0.0023323615   0.00014087454  21.386462      19.669288      1.7171735     -0.94935762     18606.278    
     31000   1.0400687      0.0023323615   0.00024778255  20.520724      18.976222      1.544502      -1.4194617      18703.339    
     32000   1.0171885      0.0023323615   0.0051812013   20.636002      19.125477      1.5105249     -1.3846725      18543.57     
     33000   0.92805477     0.0023323615   0.00082453934  20.867557      19.489396      1.3781613     -0.97715406     18854.639    
     34000   1.085506       0.0023323615  -0.001151959    21.209762      19.597786      1.6119764     -0.99621057     18833.311    
     35000   0.98527488     0.0023323615   0.0038975086   20.64144       19.178306      1.4631332     -1.3458106      18684.555    
     36000   0.97002839     0.0023323615  -6.0096647e-05  20.822304      19.381811      1.4404922     -1.1275454      18510.35     
     37000   1.0010331      0.0023323615   0.00039239531  20.753723      19.267189      1.4865342     -1.2629858      18492.719    
     38000   0.93023547     0.0023323615   0.0027328695   20.935273      19.553873      1.3813997     -1.122537       18578.942    
     39000   0.95625399     0.0023323615   0.0031113987   20.382516      18.962479      1.4200372     -1.4667066      18523.08     
     40000   1.0464132      0.0023323615   0.0015696268   20.884058      19.330135      1.5539237     -1.191999       18533.103    
     41000   0.89480945     0.0023323615   0.0014830134   20.873357      19.544565      1.328792      -0.98664759     18568.48     
     42000   0.96908526     0.0023323615   0.0005679311   20.615147      19.176056      1.4390916     -1.2579668      18681.779    
     43000   1.0956351      0.0023323615   0.00012754591  20.946361      19.319343      1.6270181     -1.1713242      18689.639    
     44000   1.0826573      0.0023323615   0.00076701089  21.054474      19.446728      1.607746      -1.1934709      18637.616    
     45000   0.86039383     0.0023323615  -0.0045600024   20.818619      19.540934      1.2776848     -0.98489908     18883.429    
     46000   0.93499138     0.0023323615  -0.0050321359   20.851064      19.462602      1.3884622     -1.1324906      18781.211    
     47000   1.164688       0.0023323615  -0.0021680699   21.097195      19.367633      1.7295617     -1.2189895      18519.86     
     48000   1.0888617      0.0023323615   0.0028667241   21.073303      19.456343      1.6169596     -1.1379413      18694.211    
     49000   1.0143489      0.0023323615  -0.0033691325   21.023511      19.517203      1.5063082     -1.0971388      18596.277    
     50000   1.0008003      0.0023323615   0.0011445646   20.604361      19.118173      1.4861885     -1.3648652      18556.129    
     51000   0.93082497     0.0023323615  -0.0021972058   20.697968      19.315693      1.3822751     -1.2543715      18583.37     
     52000   1.0097254      0.0023323615   0.00130782     20.580678      19.081235      1.4994422     -1.3313937      18500.157    
     53000   1.1478198      0.0023323615  -0.0014858588   20.98154       19.277028      1.7045125     -1.2803185      18547.787    
     54000   1.0103564      0.0023323615  -0.0030900814   20.969525      19.469146      1.5003793     -1.076993       18756.566    
     55000   0.93255818     0.0023323615   0.0020809853   20.79761       19.412761      1.3848489     -1.3240578      18638.559    
     56000   1.003512       0.0023323615  -0.0027144494   20.929642      19.439426      1.4902153     -1.0879252      18710.565    
     57000   1.1729566      0.0023323615  -0.0029862134   21.15397       19.412129      1.7418406     -1.1900133      18709.103    
     58000   0.95376384     0.0023323615  -0.00056937455  20.651749      19.23541       1.4163393     -1.3410171      18684.695    
     59000   0.86337716     0.0023323615  -0.00020932253  20.469755      19.18764       1.2821151     -1.3839083      18552.372    
     60000   0.99758811     0.0023323615   0.0028198389   20.760889      19.279471      1.4814183     -1.2324199      18455.431    
     61000   1.0039862      0.0023323615   5.6271355e-07  20.956994      19.466074      1.4909194     -1.0945318      18799.584    
     62000   1.0238297      0.0023323615   0.0017206646   21.186901      19.666514      1.520387      -1.0097248      20179.732    
     63000   1.0763994      0.0023323615  -0.0027501759   21.064438      19.465985      1.5984531     -0.96899606     20675.828    
     64000   0.97009907     0.0023323615  -0.0004929362   20.911817      19.471219      1.4405971     -1.0880429      19913.619    
     65000   1.1586695      0.0023323615  -0.0024750552   21.089828      19.369204      1.7206242     -1.1306627      19171.77     
     66000   0.94316042     0.0023323615   0.00015972989  20.613605      19.213012      1.4005932     -1.2420666      18715.691    
     67000   0.9304026      0.0023323615   0.001586317    20.471292      19.089644      1.3816479     -1.520897       18595.221    
     68000   1.2001719      0.0023323615  -0.0050497947   21.029998      19.247743      1.7822553     -1.2724723      18480.625    
     69000   0.99890846     0.0023323615  -0.0010060902   20.795631      19.312251      1.4833791     -1.1889475      18563.679    
     70000   0.98138587     0.0023323615  -0.0031528514   20.633955      19.176597      1.457358      -1.3859481      18589.025    
     71000   1.0645648      0.0023323615  -0.002415158    20.699283      19.118405      1.5808788     -1.4417473      18413.343    
     72000   1.0393138      0.0023323615  -0.00044757771  20.878387      19.335006      1.543381      -1.1580562      18531.588    
     73000   1.0188465      0.0023323615  -0.0044171387   20.594943      19.081956      1.5129871     -1.4451728      18736.342    
     74000   0.98581694     0.0023323615  -0.00029716072  21.026005      19.562067      1.4639382     -0.97927566     19962.694    
     75000   1.0233467      0.0023323615   0.00047406917  21.046336      19.526666      1.5196699     -0.93022996     23669.652    
     76000   0.97711765     0.0023323615  -0.00083010541  21.050024      19.599004      1.4510197     -0.94640924     24351.62     
     77000   1.0333786      0.0023323615  -0.0015867469   21.003908      19.469341      1.5345673     -0.98287142     24800.487    
     78000   0.98533283     0.0023323615  -0.002589768    21.073827      19.610608      1.4632193     -0.97669201     24808.636    
     79000   1.0466581      0.0023323615   0.0023993526   21.041425      19.487138      1.5542873     -1.0198575      23795        
     80000   1.0779796      0.0023323615  -0.0012510345   21.237721      19.636921      1.6007996     -0.96220081     20612.133    
     81000   1.0918974      0.0023323615  -0.0023272565   21.184174      19.562707      1.6214676     -0.96542808     19061.911    
     82000   0.9512467      0.0023323615   0.0016063281   20.741518      19.328916      1.4126014     -1.1604104      18872.7      
     83000   0.98169243     0.0023323615   0.0038449536   20.718958      19.261144      1.4578133     -1.2948708      18706.161    
     84000   1.0648504      0.0023323615  -0.0047886201   20.905079      19.323776      1.5813029     -1.253164       18569.723    
     85000   0.99925259     0.0023323615   0.0012653201   20.884223      19.400333      1.4838901     -1.1980555      18614.638    
     86000   1.1139653      0.0023323615  -0.0024801249   20.881514      19.227276      1.6542385     -1.2809785      18540.927    
     87000   1.018049       0.0023323615  -0.0004802369   20.725568      19.213766      1.5118027     -1.2292111      18446.099    
     88000   0.95953288     0.0023323615   0.0056207551   20.796493      19.371587      1.4249063     -1.2230908      18502.149    
     89000   0.88900446     0.0023323615   0.00011852345  20.583532      19.26336       1.3201716     -1.2135935      18666.808    
     90000   0.97156027     0.0023323615   0.0019146219   20.729948      19.287181      1.442767      -1.2842905      18636.857    
     91000   1.0168843      0.0023323615   0.00031116301  20.880971      19.370898      1.5100732     -1.2261512      18584.975    
     92000   1.0986756      0.0023323615  -0.00090091238  20.811723      19.180189      1.6315333     -1.287681       18808.001    
     93000   0.97202513     0.0023323615  -0.0065600573   20.751459      19.308002      1.4434573     -1.258805       18733.426    
     94000   0.92911767     0.0023323615  -0.0031781385   20.434548      19.054808      1.3797397     -1.3742078      18541.923    
     95000   1.1608246      0.0023323615  -0.001923992    20.905325      19.181501      1.7238246     -1.2483504      18711.681    
     96000   1.0416183      0.0023323615   0.0016974548   21.166835      19.620032      1.5468032     -0.88900572     18820.268    
     97000   1.0737132      0.0023323615  -0.00020865311  20.942822      19.348357      1.5944641     -1.1786777      18802.29     
     98000   0.95202342     0.0023323615  -0.0020623597   20.786155      19.3724        1.4137548     -1.1785669      18621.27     
     99000   1.0513262      0.0023323615   0.0049629914   20.945855      19.384635      1.5612195     -1.0616132      18909.612    
    100000   1.1252018      0.0023323615  -0.00092301269  20.99366       19.322736      1.6709247     -1.1142056      18803.774    
    101000   1.1196959      0.0023323615  -0.0050786029   20.946479      19.283731      1.6627484     -1.2015787      18632.415    
    102000   1.005603       0.0023323615   0.0020117897   20.669949      19.176628      1.4933205     -1.2905158      18541.606    
    103000   1.0799152      0.0023323615  -0.0018728626   20.807041      19.203367      1.6036741     -1.2758405      18506.509    
    104000   1.0958024      0.0023323615   0.00062218358  20.650592      19.023325      1.6272665     -1.4389899      18553.193    
    105000   0.93463286     0.0023323615  -0.0017066647   20.454342      19.066412      1.3879298     -1.3113024      18562.033    
    106000   0.96766858     0.0023323615  -0.0046034967   21.12636       19.689373      1.4369878     -0.94617092     18861.109    
    107000   1.1330932      0.0023323615   0.001314069    20.945995      19.263352      1.6826433     -1.2500595      18792.48     
    108000   0.83896801     0.0023323615  -0.0017196294   20.672579      19.426711      1.2458675     -1.0544751      18796.317    
    109000   1.1390809      0.0023323615  -0.0026939841   21.155895      19.46436       1.6915351     -1.1470027      18735.568    
    110000   0.95594438     0.0023323615  -6.6215961e-05  20.789553      19.369976      1.4195774     -1.1527318      18667.911    
    111000   0.86050265     0.0023323615   0.0056941183   20.733822      19.455976      1.2778464     -1.0434163      18804.578    
    112000   0.9831622      0.0023323615  -0.0028650324   20.769932      19.309936      1.4599959     -1.1840383      18741.576    
    113000   1.0462661      0.0023323615   0.0019006911   20.942151      19.388445      1.5537052     -1.0793225      18559.148    
    114000   1.0269739      0.0023323615   1.8235757e-06  20.705472      19.180415      1.5250563     -1.3547768      18579.132    
    115000   1.0091237      0.0023323615   0.0018217676   20.894247      19.395699      1.4985487     -1.1543367      18591.743    
    116000   1.0152112      0.0023323615  -0.0037667041   20.72841       19.220821      1.5075886     -1.286866       18736.328    
    117000   0.99495187     0.0023323615  -0.0044487825   20.67604       19.198537      1.4775035     -1.2765734      18598.952    
    118000   1.0500634      0.0023323615  -0.0013352429   20.733346      19.174002      1.5593442     -1.2832409      18566.28     
    119000   1.0962385      0.0023323615  -0.0018290907   20.919541      19.291626      1.6279142     -1.3250315      18476.581    
    120000   1.1230261      0.0023323615  -0.00069455659  20.797911      19.130218      1.6676938     -1.4403791      18470.246    
    121000   1.0567472      0.0023323615  -0.0012821514   20.659902      19.090633      1.5692696     -1.3519584      18553.49     
    122000   1.148488       0.0023323615   0.0041522262   20.944929      19.239424      1.7055046     -1.2209146      18524.033    
    123000   1.0561908      0.0023323615   0.00072928456  20.640126      19.071683      1.5684434     -1.462447       18646.993    
    124000   1.0183371      0.0023323615  -0.0021378511   20.829146      19.316916      1.5122306     -1.197163       18771.818    
    125000   0.93151804     0.0023323615  -0.0038770712   20.869317      19.486013      1.3833043     -1.0841553      18879.689    
    126000   0.82316166     0.0023323615  -0.00032473841  20.261384      19.038989      1.2223951     -1.46682        18745.846    
    127000   1.0410036      0.0023323615  -0.0029894964   20.954167      19.408276      1.5458904     -1.0980216      18770.262    
    128000   1.031271       0.0023323615   0.00074712981  20.674889      19.143452      1.5314374     -1.4267965      18698.287    
    129000   1.1323893      0.0023323615  -0.0029629927   21.120113      19.438515      1.6815982     -1.164476       18682.468    
    130000   1.0022677      0.0023323615   0.0033230653   20.66419       19.175822      1.4883675     -1.3410457      18625.524    
    131000   1.1094235      0.0023323615   0.0012350992   20.845494      19.198001      1.6474939     -1.4066282      18608.366    
    132000   0.91995296     0.0023323615  -0.0041956897   20.8518        19.48567       1.3661301     -1.1124054      18735.027    
    133000   0.92258627     0.0023323615  -0.0026020707   20.584444      19.214403      1.3700406     -1.3781712      18722.445    
    134000   0.99808331     0.0023323615   0.0040546248   20.822787      19.340634      1.4821537     -1.1523146      18566.508    
    135000   0.89984444     0.0023323615  -0.00078071852  20.632347      19.296078      1.336269      -1.1480007      18798.065    
    136000   0.9750313      0.0023323615  -0.003136665    20.725461      19.27754       1.4479215     -1.1670312      18760.962    
    137000   1.0550886      0.0023323615   0.0020459581   20.944723      19.377917      1.5668066     -1.0562216      18785.654    
    138000   0.88675843     0.0023323615  -0.0019092119   20.617004      19.300168      1.3168363     -1.1194466      18767.378    
    139000   0.9388282      0.0023323615  -0.0043356201   20.625016      19.230856      1.3941599     -1.266701       18655.915    
    140000   0.88824724     0.0023323615  -0.0026610507   20.483942      19.164895      1.3190471     -1.2454008      18564.898    
    141000   1.1021221      0.0023323615  -3.6847609e-05  20.843219      19.206568      1.6366513     -1.1650828      18580.27     
    142000   0.95152817     0.0023323615  -0.0038762018   20.784298      19.371279      1.4130193     -1.2422278      18651.989    
    143000   0.99183682     0.0023323615  -0.0008208174   20.933735      19.460857      1.4728777     -1.1726133      18685.93     
    144000   0.92198465     0.0023323615   0.0016990193   20.621237      19.25209       1.3691472     -1.2174513      18525.927    
    145000   1.0671107      0.0023323615   0.00099625285  20.770133      19.185474      1.5846594     -1.3223949      18345.288    
    146000   1.0068308      0.0023323615  -0.0011021059   20.959881      19.464737      1.4951438     -1.1407813      18412.915    
    147000   0.92396954     0.0023323615   0.004219278    20.515958      19.143864      1.3720948     -1.3112678      18536.971    
    148000   1.0165838      0.0023323615   0.0007223458   20.682886      19.173259      1.5096269     -1.2752027      18490.115    
    149000   0.99532485     0.0023323615   0.0008331032   20.643668      19.165611      1.4780574     -1.1579693      18621.649    
    150000   1.0854445      0.0023323615   0.00098364887  20.968697      19.356812      1.6118851     -1.1087954      18604.811    
    151000   1.1003781      0.0023323615   0.0045990577   20.863186      19.229125      1.6340615     -1.1838373      19870.966    
    152000   0.97396152     0.0023323615   0.0025330285   20.910189      19.463856      1.4463329     -1.0389622      20093.172    
    153000   0.99923485     0.0023323615  -0.0024792209   20.863878      19.380014      1.4838638     -1.0571418      19351.156    
    154000   0.96819246     0.0023323615  -0.0030882098   20.702157      19.264391      1.4377658     -1.358018       18661.426    
    155000   1.0080644      0.0023323615   0.002698409    20.848001      19.351026      1.4969756     -1.1899501      18661.004    
    156000   0.95644523     0.0023323615   0.0030998382   20.907807      19.487486      1.4203212     -1.2493687      19423.881    
    157000   1.0026056      0.0023323615  -0.0022962598   20.727339      19.23847       1.4888693     -1.210443       20013.437    
    158000   0.99765485     0.0023323615  -0.00050123357  21.185933      19.704415      1.4815175     -0.9864016      20119.884    
    159000   1.1011334      0.0023323615  -0.0035356684   21.231264      19.59608       1.6351831     -0.97613816     19632.119    
    160000   0.93997968     0.0023323615   0.0014766865   20.774499      19.378629      1.3958698     -1.09729        19035.827    
    161000   1.0714382      0.0023323615  -0.00045688056  21.066449      19.475363      1.5910858     -1.0212554      18571.98     
    162000   0.94476984     0.0023323615   0.0016636863   20.852862      19.449879      1.4029832     -1.0574117      18638.517    
    163000   0.91517616     0.0023323615  -0.0021062168   20.742977      19.38394       1.3590366     -1.1430709      18780.592    
    164000   0.93068996     0.0023323615   0.00017293407  20.615955      19.23388       1.3820746     -1.2172784      18602.37     
    165000   0.89776226     0.0023323615   0.00043208926  20.490455      19.157278      1.333177      -1.2816923      18501.621    
    166000   1.0294234      0.0023323615   0.0058408828   20.577004      19.04831       1.5286938     -1.4365742      18510.336    
    167000   0.96462859     0.0023323615   0.0029725833   20.936091      19.503618      1.4324735     -1.0761807      18527.395    
    168000   0.90817213     0.0023323615  -0.001271576    20.670892      19.322257      1.3486356     -1.1926702      18529.916    
    169000   0.96283089     0.0023323615   0.00053074855  20.841353      19.411549      1.4298039     -1.0183097      18726.527    
    170000   1.0108391      0.0023323615   0.0010714195   21.180148      19.679052      1.5010961     -0.96070392     18739.184    
    171000   1.2049828      0.0023323615  -0.00014479319  21.431457      19.642057      1.7893994     -0.8981952      19021.411    
    172000   0.80455831     0.0023323615  -0.0038974989   20.468858      19.274089      1.1947691     -1.0973516      19067.235    
    173000   1.1128547      0.0023323615   0.00025764518  21.050326      19.397737      1.6525892     -1.1148174      19746.63     
    174000   1.0740799      0.0023323615   0.0020400306   20.939682      19.344673      1.5950086     -1.1319826      19336.209    
    175000   0.98622063     0.0023323615   0.00097946075  21.038175      19.573637      1.4645376     -0.97625883     18686.493    
    176000   1.0007945      0.0023323615  -0.0008002156   20.789343      19.303163      1.4861798     -1.1824015      18539.857    
    177000   1.0121914      0.0023323615   0.004920159    20.74532       19.242215      1.5031042     -1.3577261      18533.901    
    178000   1.0250302      0.0023323615  -0.00376139     20.84449       19.32232       1.5221699     -1.1389158      18469.361    
    179000   1.0854536      0.0023323615  -0.0022677165   20.969159      19.35726       1.6118985     -1.2752455      18434.461    
    180000   0.95589259     0.0023323615   0.00087915527  20.674269      19.254769      1.4195005     -1.3072569      18426.046    
    181000   0.85221458     0.0023323615  -0.0030480333   20.86028       19.594742      1.2655386     -1.0041756      18451.088    
    182000   1.0075061      0.0023323615  -0.00093272352  20.626763      19.130616      1.4961465     -1.3661605      18581.716    
    183000   1.1454859      0.0023323615   0.00090514356  21.116867      19.41582       1.7010466     -1.3321174      18532.397    
    184000   1.132714       0.0023323615  -0.0029084643   20.898299      19.216219      1.6820804     -1.2545582      18467.717    
    185000   0.98629277     0.0023323615  -0.0031262652   20.663302      19.198657      1.4646448     -1.2311523      18544.593    
    186000   0.94063714     0.0023323615   0.0010714478   20.738574      19.341728      1.3968462     -1.0646453      18546.826    
    187000   0.89815795     0.0023323615   0.0033823747   20.542439      19.208674      1.3337645     -1.3060868      18492.218    
    188000   0.93756549     0.0023323615   0.0004880821   20.607264      19.214979      1.3922847     -1.1758466      18437.005    
    189000   0.90836698     0.0023323615  -0.0020439128   20.664447      19.315522      1.348925      -1.1615616      18452.241    
    190000   0.98806162     0.0023323615  -0.00057740673  20.804597      19.337326      1.4672715     -1.1236364      18526.226    
    191000   0.97014714     0.0023323615   0.0012203647   21.066977      19.626308      1.4406685     -0.97692383     18592.055    
    192000   0.82454502     0.0023323615  -0.001173868    20.769342      19.544892      1.2244494     -1.0263516      18715.516    
    193000   0.96180853     0.0023323615  -0.0017964165   20.864948      19.436662      1.4282857     -1.2137897      18684.965    
    194000   1.1025929      0.0023323615   0.0032222409   20.909294      19.271943      1.6373505     -1.3283122      18325.597    
    195000   0.98583051     0.0023323615  -0.0038455242   20.822318      19.35836       1.4639583     -1.1823997      18608.38     
    196000   1.0124932      0.0023323615   0.00169576     20.631271      19.127719      1.5035524     -1.3235577      18590.572    
    197000   1.1551849      0.0023323615  -0.0033013306   21.107003      19.391553      1.7154496     -1.0961651      18861.391    
    198000   0.82857047     0.0023323615   0.00022504624  20.547799      19.317372      1.2304272     -1.1390829      19038.249    
    199000   1.1256499      0.0023323615  -0.00073957261  21.005634      19.334043      1.6715901     -1.2589925      18542.563    
    200000   1.0286581      0.0023323615  -0.0015448659   20.761092      19.233535      1.5275572     -1.299419       18447.402    
    201000   0.99483067     0.0023323615   0.004026775    20.588621      19.111298      1.4773235     -1.3403223      18547.749    
    202000   0.97369662     0.0023323615  -0.0051565573   20.917612      19.471673      1.4459395     -1.0237656      18642.803    
    203000   0.96945667     0.0023323615  -0.0028854659   20.983447      19.543804      1.4396432     -1.0578136      18836.236    
    204000   1.0031405      0.0023323615  -0.0029481424   20.81402       19.324357      1.4896637     -1.1512341      18797.155    
    205000   0.95805828     0.0023323615   0.0040019785   20.568626      19.14591       1.4227165     -1.2380959      18682.842    
    206000   1.0096993      0.0023323615   0.0045791244   20.832969      19.333566      1.4994034     -1.2271706      18595.397    
    207000   0.95910435     0.0023323615   0.0034960067   20.472041      19.047771      1.42427       -1.3765014      18633.775    
    208000   0.85520746     0.0023323615   0.00028173957  20.520928      19.250945      1.2699831     -1.2164485      18593.682    
    209000   0.92229322     0.0023323615   0.00088512446  20.717241      19.347635      1.3696054     -1.152877       18850.437    
    210000   1.0295251      0.0023323615   0.0019927906   20.720368      19.191523      1.5288448     -1.2013179      18871.254    
    211000   0.90198983     0.0023323615  -0.0020409295   20.371332      19.031877      1.3394549     -1.4477079      18759.989    
    212000   1.0507975      0.0023323615   0.00017803172  20.936333      19.375899      1.5604342     -1.1093747      18411.183    
    213000   1.1378204      0.0023323615  -0.00044603297  20.872489      19.182826      1.6896633     -1.2426397      18483.113    
    214000   1.0318022      0.0023323615   0.0035724284   20.758825      19.226599      1.5322262     -1.2162073      18586.477    
    215000   1.0303327      0.0023323615  -0.00059044372  20.826472      19.296428      1.530044      -1.1934489      18622.813    
    216000   0.97701052     0.0023323615  -0.0039842814   20.841648      19.390787      1.4508606     -1.1086419      18599.736    
    217000   0.96097988     0.0023323615   0.0028172659   20.621796      19.194741      1.4270551     -1.2729434      18393.866    
    218000   0.93841207     0.0023323615  -0.00052953312  20.55597       19.162428      1.3935419     -1.3411664      18394.171    
    219000   1.017385       0.0023323615   0.0024175631   20.906405      19.395588      1.5108167     -1.1516152      18553.835    
    220000   0.94095446     0.0023323615   0.0015128653   20.656411      19.259094      1.3973174     -1.1484725      18698.627    
    221000   1.1133602      0.0023323615  -0.0006291598   21.084656      19.431316      1.6533399     -1.1191593      19644.781    
    222000   1.0343369      0.0023323615  -0.00023145303  20.782647      19.246656      1.5359902     -1.1677135      19806.028    
    223000   1.1090481      0.0023323615  -0.0010861561   20.766601      19.119665      1.6469364     -1.3548262      18881.068    
    224000   0.97788587     0.0023323615  -0.0012827445   20.673217      19.221056      1.4521605     -1.2016479      18528.53     
    225000   0.99339813     0.0023323615   0.000829912    20.663735      19.188538      1.4751962     -1.2613296      18559.476    
    226000   0.90604785     0.0023323615   0.0033177578   20.632235      19.286754      1.3454811     -1.1801281      18439.454    
    227000   0.95648436     0.0023323615   0.00088012144  20.71327       19.29289       1.4203793     -1.2517195      18502.307    
    228000   0.9532319      0.0023323615   0.0051010483   20.612702      19.197153      1.4155494     -1.1323116      18461.039    
    229000   0.8499308      0.0023323615   0.0014859963   20.460161      19.198013      1.2621472     -1.4072345      18623.171    
    230000   0.9830715      0.0023323615  -0.00085973965  20.653018      19.193157      1.4598612     -1.3526739      18574.866    
    231000   0.95629282     0.0023323615  -0.00026006442  20.490867      19.070772      1.4200948     -1.4644061      18317.126    
    232000   1.0058662      0.0023323615   0.0027560728   20.593708      19.099997      1.4937113     -1.3649158      18309.882    
    233000   1.0314757      0.0023323615  -0.0019083008   20.958967      19.427225      1.5317414     -1.0741193      18413.822    
    234000   1.0609278      0.0023323615  -0.0013826047   21.185842      19.610364      1.5754779     -0.9037748      18891.96     
    235000   0.94711261     0.0023323615   0.00020111352  20.894347      19.487885      1.4064622     -1.0062018      19518.292    
    236000   0.90761829     0.0023323615  -0.00019226239  20.819361      19.471548      1.3478132     -1.0055622      19112.442    
    237000   0.98919214     0.0023323615   0.0041062927   20.757261      19.288311      1.4689503     -1.0854491      18850.248    
    238000   0.98036226     0.0023323615  -0.0016392367   20.795942      19.340105      1.455838      -1.1990198      18840.35     
    239000   1.0350284      0.0023323615  -0.0046289451   21.041442      19.504425      1.5370171     -0.97429821     18832.54     
    240000   1.1108274      0.0023323615   0.00059628617  20.861667      19.212088      1.6495786     -1.4033012      18578.029    
    241000   1.0052432      0.0023323615  -0.0016922204   20.719362      19.226576      1.4927862     -1.3189268      18340.289    
    242000   0.99023944     0.0023323615   0.0016002917   20.925899      19.455393      1.4705056     -1.1087224      18581.761    
    243000   1.0901636      0.0023323615  -0.0003428672   21.141766      19.522873      1.6188929     -1.1699147      18696.311    
    244000   0.94841415     0.0023323615  -0.0012462918   20.782972      19.374577      1.408395      -1.2065337      18529.015    
    245000   1.0283917      0.0023323615   0.00092000134  20.74729       19.220128      1.5271617     -1.3665041      18555.228    
    246000   0.87610983     0.0023323615  -0.0035260848   20.633681      19.332658      1.3010231     -1.2174676      18472.253    
    247000   0.93721205     0.0023323615  -0.0018791865   20.750113      19.358353      1.3917599     -1.0935006      18556.636    
    248000   0.95944705     0.0023323615  -0.0064036062   20.868175      19.443396      1.4247789     -1.0932251      18942.448    
    249000   0.98836271     0.0023323615   0.001031907    20.914449      19.44673       1.4677186     -0.99217181     19843.32     
    250000   0.94020691     0.0023323615  -0.00067347024  20.882381      19.486174      1.3962073     -1.0288353      19805.053    
    251000   0.89066384     0.0023323615  -0.0017325273   20.689236      19.3666        1.3226358     -1.1892396      19463.492    
    252000   0.98963124     0.0023323615  -0.002185501    20.703602      19.234         1.4696024     -1.2074973      18883.293    
    253000   1.002037       0.0023323615  -0.00030521748  20.873734      19.385709      1.488025      -1.0742748      18716.228    
    254000   1.1356473      0.0023323615   0.0046065137   21.328621      19.642185      1.6864362     -0.95242131     18744.772    
    255000   0.92590007     0.0023323615   0.0005451403   20.704814      19.329853      1.3749616     -1.1965734      18748.906    
    256000   1.214164       0.0023323615   0.0042267203   21.251933      19.448899      1.8030336     -1.1892308      18586.294    
    257000   1.0868773      0.0023323615   9.5938692e-06  21.114915      19.500902      1.6140128     -1.0430654      18631.128    
    258000   0.99100138     0.0023323615  -5.7729328e-05  20.87944       19.407802      1.471637      -1.0880216      18754.011    
    259000   1.03626        0.0023323615   0.00037652736  20.997087      19.45824       1.5388461     -1.086397       18610.729    
    260000   1.0427214      0.0023323615   0.0023746971   20.580638      19.032197      1.5484413     -1.4721945      18454.957    
    261000   0.98547671     0.0023323615  -0.00055031144  21.136965      19.673532      1.4634329     -0.84525        18686.57     
    262000   1.0137052      0.0023323615   0.0011341093   21.055402      19.55005       1.5053522     -0.94375661     19432.696    
    263000   1.054974       0.0023323615   0.0045092031   21.247404      19.680768      1.5666364     -0.87361622     19883.494    
    264000   1.0091188      0.0023323615   0.0020405543   20.918008      19.419466      1.4985414     -1.1159166      19310.808    
    265000   1.022031       0.0023323615   9.716238e-05   20.907325      19.389609      1.517716      -1.0949297      18689.002    
    266000   1.0005073      0.0023323615   0.00097774801  20.786223      19.300469      1.4857534     -1.2773139      18678.422    
    267000   0.99883203     0.0023323615  -0.0020236474   20.917307      19.434042      1.4832656     -0.98764911     18521.303    
    268000   1.0669585      0.0023323615  -0.0012791465   21.044481      19.460048      1.5844334     -1.0413386      18743.896    
    269000   1.0114836      0.0023323615   0.00093160249  20.735888      19.233835      1.5020532     -1.2591947      18592.259    
    270000   1.1283419      0.0023323615  -0.0026237674   21.025792      19.350204      1.6755877     -1.2612691      18383.841    
    271000   0.77435042     0.0023323615   0.00072208081  20.390343      19.240433      1.1499104     -1.2801738      18410.072    
    272000   1.0760977      0.0023323615   9.4164204e-05  20.78609       19.188085      1.598005      -1.3361747      18421.523    
    273000   1.0137566      0.0023323615  -0.0028738447   20.57598       19.070551      1.5054285     -1.4399976      18351.71     
    274000   1.0806052      0.0023323615  -0.0022003102   20.773186      19.168487      1.6046987     -1.3044069      18443.567    
    275000   1.0359451      0.0023323615  -0.0019534948   20.817515      19.279136      1.5383785     -1.1962923      18372.522    
    276000   0.97113811     0.0023323615   0.0011390147   20.778784      19.336644      1.4421401     -1.1258589      18423.89     
    277000   1.1137722      0.0023323615   3.4459202e-05  20.878094      19.224142      1.6539517     -1.2756022      18469.498    
    278000   1.0720239      0.0023323615   0.0018843314   20.519056      18.9271        1.5919554     -1.493037       18469.675    
    279000   1.0161119      0.0023323615  -0.00010358408  20.712815      19.203888      1.5089262     -1.3676728      18360.21     
    280000   0.94264557     0.0023323615   0.0046640688   20.779082      19.379253      1.3998287     -1.3004701      18323.29     
    281000   0.98261787     0.0023323615   0.0026508236   20.847378      19.38819       1.4591875     -1.1780595      18471.709    
    282000   1.0141421      0.0023323615   0.0012826797   20.921441      19.41544       1.5060011     -1.2523824      18401.126    
    283000   1.0434954      0.0023323615   0.001337631    20.942848      19.393258      1.5495906     -1.1829684      18544.355    
    284000   0.92006881     0.0023323615   0.00029884496  20.543769      19.177467      1.3663022     -1.3008673      18443.005    
    285000   0.95904465     0.0023323615   0.0047362007   20.649696      19.225514      1.4241813     -1.2313029      18428.342    
    286000   1.0237573      0.0023323615  -5.2986942e-05  20.807956      19.287677      1.5202796     -1.2402423      18554.155    
    287000   1.031122       0.0023323615  -4.7325778e-05  20.892713      19.361497      1.5312162     -1.1516069      18512.715    
    288000   0.95015502     0.0023323615   0.00013297091  20.637289      19.226309      1.4109802     -1.2816701      18417.39     
    289000   1.1693339      0.0023323615   0.0026971363   21.257592      19.521131      1.7364609     -1.0516048      18484.992    
    290000   1.115946       0.0023323615   0.0033138843   20.98264       19.32546       1.6571798     -1.186293       18697.877    
    291000   1.0535044      0.0023323615  -0.002064889    21.231517      19.667063      1.564454      -0.96385128     19457.399    
    292000   1.0644265      0.0023323615  -0.0011776944   20.980618      19.399945      1.5806734     -1.0465739      19416.83     
    293000   1.0550676      0.0023323615   0.00050560643  20.932661      19.365886      1.5667753     -1.2099068      18860.279    
    294000   1.1093453      0.0023323615   0.0018959351   20.738558      19.09118       1.6473778     -1.3896288      18450.962    
    295000   0.97101785     0.0023323615   5.0611006e-05  20.694659      19.252698      1.4419615     -1.2352041      18571.548    
    296000   1.0428966      0.0023323615  -0.0010403467   20.826369      19.277668      1.5487015     -1.1796712      19108.79     
    297000   0.95418325     0.0023323615  -0.0047364303   20.96065       19.543688      1.4169621     -1.0228944      19232.954    
    298000   1.0819353      0.0023323615   0.0054881927   20.925446      19.318772      1.6066739     -1.1832324      18978.227    
    299000   0.89985256     0.0023323615  -0.0012099137   20.597815      19.261534      1.336281      -1.3115963      18839.493    
    300000   1.1490189      0.0023323615  -0.0042183777   21.164445      19.458151      1.7062931     -1.0894661      18761.339    
    301000   1.0415094      0.0023323615  -0.0025105252   20.974154      19.427513      1.5466415     -1.1232393      18598.582    
    302000   0.99895655     0.0023323615  -0.0019514327   20.814223      19.330772      1.4834505     -1.2430647      18562.965    
    303000   1.082028       0.0023323615  -0.0020691326   20.693409      19.086597      1.6068116     -1.3503255      18731.366    
    304000   0.86954171     0.0023323615   0.00091885374  20.681957      19.390688      1.2912694     -1.0147897      18962.627    
    305000   1.0882632      0.0023323615   0.0040432196   21.097137      19.481067      1.6160709     -1.0462792      19679.897    
    306000   1.0285003      0.0023323615  -0.00017368654  20.992996      19.465673      1.527323      -1.0417006      19838.453    
    307000   0.91794734     0.0023323615   0.0012537304   20.943025      19.579873      1.3631518     -0.9779893      19635.17     
    308000   0.97290082     0.0023323615  -0.0017644578   20.778478      19.33372       1.4447577     -1.1866061      18934.522    
    309000   1.0072216      0.0023323615   0.00042524175  20.63693       19.141206      1.4957241     -1.284689       18640.703    
    310000   1.0784317      0.0023323615   0.0024064094   20.944041      19.34257       1.6014711     -1.0525923      18646.787    
    311000   1.0137314      0.0023323615   0.0042327537   20.78617       19.280779      1.5053911     -1.3197082      18573.673    
    312000   0.88320534     0.0023323615  -0.0045553848   20.922243      19.610683      1.3115599     -1.0429264      18463.341    
    313000   0.92425172     0.0023323615  -0.0018875636   20.792271      19.419758      1.3725138     -1.166508       18363.031    
    314000   1.1368604      0.0023323615   0.0037949907   21.08265       19.394413      1.6882377     -1.1212106      18553.128    
    315000   1.0678186      0.0023323615   0.00067808186  20.801777      19.216067      1.5857106     -1.2579443      18565.872    
    316000   0.91003772     0.0023323615   0.0082923215   20.606903      19.255497      1.351406      -1.2916591      18462.925    
    317000   1.3100293      0.0023323615  -0.00082239788  21.359965      19.414572      1.9453935     -1.0901384      18551.062    
    318000   0.99887446     0.0023323615   0.0040815193   20.742302      19.258974      1.4833286     -1.2747701      18611.111    
    319000   1.155067       0.0023323615   0.0049854799   21.078543      19.363268      1.7152746     -1.1606545      18585.983    
    320000   1.0611426      0.0023323615   0.0022000992   20.887807      19.31201       1.5757968     -1.3066263      18528.166    
    321000   0.990013       0.0023323615  -0.00059492764  20.898912      19.428743      1.4701693     -1.1235775      18629.028    
    322000   0.92069017     0.0023323615  -0.00044934417  20.640367      19.273142      1.3672249     -1.2234511      18494.171    
    323000   1.0439405      0.0023323615  -0.0017333771   20.841688      19.291436      1.5502516     -1.2146744      18549.473    
    324000   1.0832216      0.0023323615  -0.0029346513   20.709334      19.10075       1.608584      -1.3605366      18544.307    
    325000   0.87415481     0.0023323615  -0.00052666136  20.509711      19.211592      1.2981199     -1.2743565      18477.184    
    326000   0.84633945     0.0023323615  -0.0020297168   20.696286      19.439472      1.2568141     -1.0378451      18449.475    
    327000   1.0975078      0.0023323615  -0.0044329731   20.768654      19.138855      1.6297991     -1.3802348      18565.078    
    328000   0.85168157     0.0023323615   2.2706918e-05  20.369845      19.105098      1.2647471     -1.4910704      18362.865    
    329000   0.95463561     0.0023323615  -0.00057499411  20.699199      19.281565      1.4176339     -1.2844246      18439.499    
    330000   1.0606983      0.0023323615  -0.0018296571   20.75651       19.181373      1.575137      -1.3066327      18278.588    
    331000   1.022803       0.0023323615   0.0023102182   20.977711      19.458849      1.5188624     -1.2218017      18670.184    
    332000   1.0691395      0.0023323615   0.0034450593   21.059678      19.472006      1.5876722     -1.2083161      19130.161    
    333000   0.93045295     0.0023323615   0.0013823757   20.839105      19.457382      1.3817226     -1.1851145      19590.316    
    334000   0.99413426     0.0023323615   0.0018751255   20.923736      19.447447      1.4762894     -1.1116398      19310.636    
    335000   1.017523       0.0023323615  -0.0038557588   20.659633      19.148612      1.5110216     -1.4056639      18643.872    
    336000   0.95569548     0.0023323615   0.0015087747   20.805941      19.386734      1.4192078     -1.0422307      18381.474    
    337000   0.95637072     0.0023323615  -1.9719979e-05  20.843331      19.42312       1.4202105     -1.0721675      18647.94     
    338000   0.95805713     0.0023323615  -0.0014160441   20.453235      19.03052       1.4227148     -1.4058675      18660.418    
    339000   1.043527       0.0023323615   0.00093424276  20.849059      19.299421      1.5496376     -1.2737778      18679.538    
    340000   1.0059651      0.0023323615  -0.0040178146   20.682221      19.188363      1.4938581     -1.2358563      18665.457    
    341000   1.1258196      0.0023323615   0.0053947944   20.701583      19.029741      1.6718421     -1.2801389      18911.633    
    342000   1.1252597      0.0023323615  -0.0006148029   21.165585      19.494574      1.6710107     -1.103075       18762.729    
    343000   0.99842998     0.0023323615   0.0020546063   20.845715      19.363046      1.4826685     -1.2722752      18409.23     
    344000   1.0130083      0.0023323615   0.0037232992   20.876235      19.371917      1.5043174     -1.2318467      18417.771    
    345000   0.84326693     0.0023323615   0.0007973954   20.476592      19.224341      1.2522514     -1.2260819      18600.276    
    346000   1.0008028      0.0023323615  -0.00126046     20.916682      19.43049       1.4861921     -1.0932227      18664.657    
    347000   1.2226361      0.0023323615   0.0023484807   21.069406      19.253792      1.8156145     -1.3031594      18594.961    
    348000   1.0613557      0.0023323615  -0.0018614956   21.083106      19.506993      1.5761132     -0.9308092      18776.416    
    349000   0.90335785     0.0023323615  -0.0014552245   20.882177      19.540691      1.3414864     -1.1249154      18783.551    
    350000   0.92887913     0.0023323615  -0.0015612882   20.335218      18.955833      1.3793855     -1.5041979      18519.331    
    351000   0.88234814     0.0023323615   0.0031691585   20.73983       19.429543      1.310287      -1.2605432      18575.975    
    352000   1.0086978      0.0023323615  -0.0046547956   21.145282      19.647366      1.4979162     -0.96698236     18866.553    
    353000   0.99248054     0.0023323615  -0.0022525221   20.996997      19.523164      1.4738336     -0.98960361     18990.244    
    354000   0.88272596     0.0023323615  -5.8431853e-05  20.709043      19.398195      1.310848      -1.2050827      19292.429    
    355000   0.89965388     0.0023323615  -0.0043493293   20.782175      19.446189      1.335986      -1.0670529      19056.583    
    356000   0.95320086     0.0023323615   0.0011473646   20.684382      19.268878      1.4155033     -1.2554823      18682.254    
    357000   0.97835495     0.0023323615  -0.001177946    20.854429      19.401572      1.4528571     -1.1952469      18367.319    
    358000   0.94060755     0.0023323615   0.0033168308   20.69839       19.301588      1.3968022     -1.3343127      18540.842    
    359000   1.0355355      0.0023323615  -0.0021743907   21.063906      19.526135      1.5377702     -1.1663026      18624.561    
    360000   1.0111692      0.0023323615   0.0020248436   21.282184      19.780598      1.5015862     -0.89422446     18673.055    
    361000   0.9501428      0.0023323615   0.0026273089   20.898497      19.487535      1.4109621     -0.99359717     19110.027    
    362000   0.89886285     0.0023323615  -0.0041842368   20.614977      19.280165      1.3348113     -1.2075665      19128.701    
    363000   0.98470268     0.0023323615  -0.0013473611   20.686604      19.224321      1.4622835     -1.1971038      18741.742    
    364000   1.0931324      0.0023323615  -0.0048280094   20.984343      19.361042      1.6233016     -1.1373954      18593.281    
    365000   0.92298115     0.0023323615   0.0023580857   20.571996      19.201369      1.370627      -1.3680601      18522.647    
    366000   1.0594474      0.0023323615   0.0029338193   20.714316      19.141036      1.5732793     -1.3573487      18538.903    
    367000   0.95137195     0.0023323615   0.00095622105  20.853718      19.440931      1.4127873     -1.0844092      18806.591    
    368000   1.0437254      0.0023323615  -0.00070666166  20.920249      19.370317      1.5499323     -1.1115908      19132.449    
    369000   0.93805894     0.0023323615  -0.00098546319  20.720222      19.327205      1.3930175     -1.1514523      19673.725    
    370000   0.89047136     0.0023323615   0.0025215292   20.438352      19.116002      1.32235       -1.2667403      18900.403    
    371000   1.0015012      0.0023323615  -0.00029876762  20.7231        19.235871      1.4872292     -1.2079027      18616.509    
    372000   1.0468628      0.0023323615   0.0021673476   20.835349      19.280758      1.5545913     -1.243284       18655.584    
    373000   1.0202069      0.0023323615  -0.00056718436  20.884039      19.369032      1.5150073     -1.1723881      18565.938    
    374000   0.99764555     0.0023323615   0.0032079652   20.87891       19.397406      1.4815036     -1.0682089      18606.413    
    375000   1.1094574      0.0023323615  -0.0014156129   21.021184      19.37364       1.6475442     -1.1171824      18537.673    
    376000   0.94938876     0.0023323615  -0.0013282137   20.847008      19.437165      1.4098423     -1.1742831      18621.746    
    377000   0.93063793     0.0023323615   0.00037972711  20.597186      19.215189      1.3819973     -1.2176253      18475.744    
    378000   1.0188065      0.0023323615   0.00010979589  20.764425      19.251497      1.5129277     -1.2437082      18575.571    
    379000   0.95386624     0.0023323615  -0.0024997021   20.622959      19.206468      1.4164914     -1.2734356      18565.192    
    380000   1.0009774      0.0023323615   0.00026644947  20.783269      19.296818      1.4864515     -1.1643048      18567.098    
    381000   1.0386893      0.0023323615  -0.00135142     20.914017      19.371563      1.5424536     -1.1022614      18641.567    
    382000   0.86358468     0.0023323615   0.0029136263   20.522566      19.240143      1.2824233     -1.3017369      18555.725    
    383000   1.0693353      0.0023323615  -0.002943132    20.816954      19.228991      1.5879629     -1.1931515      18541.482    
    384000   0.90801746     0.0023323615   0.0016195755   20.478251      19.129845      1.3484059     -1.2608995      18889.065    
    385000   1.0039024      0.0023323615   0.00061132468  20.745377      19.254582      1.4907951     -1.1345935      19055.211    
    386000   0.93063207     0.0023323615   0.0018175219   20.634006      19.252017      1.3819886     -1.2262049      18945.926    
    387000   1.0075404      0.0023323615   0.0003915616   20.787923      19.291726      1.4961975     -1.1619703      18819.43     
    388000   0.93138429     0.0023323615   0.0013475259   20.527601      19.144496      1.3831057     -1.3700463      18654.172    
    389000   0.90209094     0.0023323615  -0.00026348663  20.469518      19.129913      1.339605      -1.3515876      18677.028    
    390000   1.0587679      0.0023323615   0.0010482016   20.893597      19.321326      1.5722704     -1.1367617      18479.301    
    391000   0.92950625     0.0023323615   0.00012385838  20.770563      19.390247      1.3803168     -1.1601597      18745.061    
    392000   1.0227745      0.0023323615   0.0024400076   20.729566      19.210746      1.5188201     -1.2585855      18695.818    
    393000   0.89051516     0.0023323615  -0.0044005085   20.680264      19.357849      1.322415      -1.1233481      18584.107    
    394000   1.0732072      0.0023323615   0.0024338081   20.859652      19.265939      1.5937127     -1.2791209      18734.685    
    395000   0.95633441     0.0023323615   0.0001971291   20.46076       19.040604      1.4201566     -1.3754152      18604.873    
    396000   1.1087816      0.0023323615   0.0013020248   20.909275      19.262734      1.6465406     -1.1612376      18527.485    
    397000   0.78098184     0.0023323615  -0.0014919861   20.438743      19.278984      1.159758      -1.3882286      18536.286    
    398000   1.0047174      0.0023323615  -0.0022332874   20.709362      19.217356      1.4920053     -1.3539663      18564.388    
    399000   0.96387002     0.0023323615  -0.0015317259   20.699813      19.268466      1.431347      -1.2893462      18609.754    
    400000   0.97146        0.0023323615  -0.0028527725   20.640183      19.197565      1.4426181     -1.2828305      18692.716    
    401000   0.94611641     0.0023323615  -0.002446935    20.773109      19.368126      1.4049829     -1.126833       18681.807    
    402000   0.95644834     0.0023323615   5.0676766e-05  20.708188      19.287862      1.4203258     -1.2655857      18694.799    
    403000   0.9883509      0.0023323615   0.00029995723  20.564166      19.096465      1.4677011     -1.3380158      18671.173    
    404000   0.84721711     0.0023323615  -0.0031578286   20.731803      19.473686      1.2581174     -1.134319       18572.608    
    405000   0.97763783     0.0023323615   0.0037190429   20.880856      19.429064      1.4517922     -1.1041651      18697.467    
    406000   1.0516432      0.0023323615   0.0017299539   20.861707      19.300017      1.5616901     -1.1666575      18652.112    
    407000   0.80493656     0.0023323615  -0.0053163041   20.536497      19.341166      1.1953308     -1.0994436      18698.865    
    408000   1.0601483      0.0023323615   0.0044638088   20.793534      19.219213      1.5743203     -1.3151687      18769.535    
    409000   1.2292406      0.0023323615  -0.0022766471   20.987142      19.16172       1.8254223     -1.2695645      18573.273    
    410000   1.0245467      0.0023323615  -0.0015088703   20.945281      19.423829      1.5214518     -1.0025326      18677.409    
[...]
    861000   1.0972077      0.0023323615  -0.00085413641  20.920753      19.2914        1.6293535     -1.1464506      18821.883    
    862000   0.94900726     0.0023323615  -0.0028604476   20.712444      19.303168      1.4092758     -1.2116068      18704.296    
    863000   1.1351134      0.0023323615  -0.0033016165   21.170182      19.484539      1.6856434     -1.1005102      18494.387    
    864000   0.98586457     0.0023323615  -0.0016430447   20.648916      19.184907      1.4640089     -1.3218688      18877.697    
    865000   1.0297099      0.0023323615   0.0013410628   20.891354      19.362235      1.5291192     -1.2467654      18819.728    
    866000   0.84547362     0.0023323615  -0.0024739155   20.716382      19.460854      1.2555283     -1.071594       18797.339    
    867000   1.0263987      0.0023323615   0.0013491239   21.071818      19.547616      1.5242021     -1.0693176      19036.633    
    868000   0.87515206     0.0023323615   0.0017578337   20.460947      19.161346      1.2996008     -1.3068485      18918.523    
    869000   1.0173544      0.0023323615   0.0022792991   20.932675      19.421904      1.5107713     -1.1350332      18723.204    
    870000   0.96645727     0.0023323615  -0.0012065902   20.778533      19.343344      1.435189      -1.158609       18771.148    
    871000   0.91249161     0.0023323615  -0.0012845626   20.757018      19.401968      1.35505       -1.1945889      18844.579    
    872000   0.91185339     0.0023323615  -0.0042165256   20.616752      19.26265       1.3541023     -1.2019848      18893.505    
    873000   1.1365588      0.0023323615   0.00064516507  21.124984      19.437194      1.6877898     -1.0849249      19004.114    
    874000   1.1166731      0.0023323615   0.00025324646  20.962045      19.303786      1.6582595     -1.1932236      19002.272    
    875000   1.1449202      0.0023323615   0.002553459    21.030083      19.329876      1.7002065     -1.1303425      18670.013    
    876000   1.0445927      0.0023323615   0.00090070434  20.915815      19.364595      1.5512201     -1.0883252      18697.457    
    877000   0.97065658     0.0023323615  -0.001831085    20.709561      19.268136      1.441425      -1.3052358      18772.168    
    878000   0.930145       0.0023323615   0.00060035147  20.537807      19.156542      1.3812653     -1.2815274      18592.422    
    879000   0.99325846     0.0023323615  -0.00230907     20.708551      19.233562      1.4749888     -1.3052352      18567.865    
    880000   1.0000327      0.0023323615  -0.0021240948   20.992747      19.507698      1.4850486     -1.1334299      18711.551    
    881000   1.0093386      0.0023323615   0.0033069914   20.494503      18.995635      1.4988678     -1.4148189      18654.026    
    882000   0.87824071     0.0023323615   0.0045426686   20.658152      19.353965      1.3041875     -1.0945118      18593.8      
    883000   0.94339678     0.0023323615   0.0010171213   20.705808      19.304864      1.4009442     -1.0617368      18832.188    
    884000   1.003666       0.0023323615   0.0012689719   20.719327      19.228883      1.490444      -1.2372803      18567.385    
    885000   1.0241755      0.0023323615  -5.7361324e-05  20.711896      19.190995      1.5209006     -1.1933872      18506.211    
    886000   0.89444883     0.0023323615  -0.0041059886   20.780843      19.452587      1.3282565     -1.1279295      18751.157    
    887000   0.91837075     0.0023323615  -0.00046965891  20.619833      19.256053      1.3637806     -1.1719154      18676.154    
    888000   0.87816462     0.0023323615  -8.6023052e-05  20.839228      19.535153      1.3040745     -1.1185573      18782.352    
    889000   1.011751       0.0023323615   0.0024181186   21.020455      19.518005      1.5024502     -1.018431       19009.858    
    890000   1.0288145      0.0023323615  -0.0013901689   20.870343      19.342554      1.5277896     -1.1037955      19237.357    
    891000   1.0671139      0.0023323615   0.002011413    21.020195      19.435531      1.5846642     -1.0226292      19689.948    
    892000   0.90532369     0.0023323615  -0.0027726849   20.696144      19.351738      1.3444057     -1.0528178      19716.123    
    893000   0.98217001     0.0023323615  -0.0022423547   20.735378      19.276855      1.4585225     -1.2160824      19419.542    
    894000   0.94255473     0.0023323615   0.00054343461  20.660981      19.261288      1.3996938     -1.1986655      18841.722    
    895000   0.89137137     0.0023323615  -0.00025000109  20.90657       19.582883      1.3236865     -0.91750715     18901.355    
    896000   1.0943054      0.0023323615  -0.00259271     21.053224      19.42818       1.6250435     -1.1181165      18891.338    
    897000   1.036352       0.0023323615  -0.003748431    21.038062      19.499079      1.5389827     -1.1332065      18691.798    
    898000   0.90392857     0.0023323615   0.00083874956  20.560524      19.21819       1.3423339     -1.2264442      18595.709    
    899000   0.96254564     0.0023323615  -0.00089149607  20.872956      19.443576      1.4293803     -1.1416171      18894.936    
    900000   1.043931       0.0023323615  -0.001657453    20.978884      19.428647      1.5502375     -1.1455208      19132.504    
    901000   1.0358068      0.0023323615   0.00058544585  20.969392      19.431219      1.5381731     -1.0130672      18832.902    
    902000   1.1011179      0.0023323615  -0.0033782831   21.224512      19.589352      1.6351601     -1.0956587      18810.816    
    903000   1.0297249      0.0023323615   0.0026117693   20.941031      19.411889      1.5291415     -1.2368616      18918.433    
    904000   0.98585858     0.0023323615  -0.0003983095   20.732079      19.268079      1.464         -1.3662859      18594.93     
    905000   0.95130645     0.0023323615   0.00085147605  20.856719      19.444029      1.4126901     -1.1753049      18485.862    
    906000   1.0520569      0.0023323615  -0.0037310274   21.136721      19.574416      1.5623045     -1.0133535      18683.541    
    907000   1.0241034      0.0023323615   0.0027073894   20.886194      19.365401      1.5207935     -1.1310192      18930.866    
    908000   0.90541605     0.0023323615   0.002253546    20.641582      19.297039      1.3445428     -1.1742401      18789.374    
    909000   0.99207575     0.0023323615  -8.6237774e-06  20.660419      19.187187      1.4732325     -1.3032667      18665.045    
    910000   0.9436183      0.0023323615   0.00069910246  20.461576      19.060302      1.4012732     -1.4098067      18624.759    
    911000   0.96144448     0.0023323615   0.00076591798  20.546416      19.118671      1.4277451     -1.3514683      18627.063    
    912000   0.98886124     0.0023323615   0.00091255638  20.834343      19.365884      1.4684589     -1.2439906      18701.51     
    913000   1.030945       0.0023323615  -0.0012670278   20.706529      19.175576      1.5309534     -1.3196556      18678.21     
    914000   1.0183036      0.0023323615  -0.0018950385   20.96245       19.450269      1.5121809     -1.232258       18539.061    
    915000   0.93486252     0.0023323615  -0.0002541129   20.797574      19.409303      1.3882708     -1.1897428      18621.614    
    916000   1.1012509      0.0023323615   0.0038781555   20.980634      19.345276      1.6353576     -1.1107954      18604.662    
    917000   1.0493375      0.0023323615  -0.00059886583  20.946683      19.388417      1.5582662     -1.0974954      18815.766    
    918000   0.85336182     0.0023323615  -0.0006506708   20.463356      19.196113      1.2672423     -1.3043617      18880.721    
    919000   1.0256252      0.0023323615  -0.00035276987  21.184053      19.660999      1.5230535     -0.86880177     18967.657    
    920000   1.0697286      0.0023323615   0.0014850542   20.928617      19.34007       1.588547      -1.1992295      19127.048    
    921000   1.1810605      0.0023323615  -0.00068176906  21.272113      19.518238      1.7538748     -1.1124503      18975.615    
    922000   1.1128531      0.0023323615   0.00056483947  20.955077      19.30249       1.6525869     -1.2724258      18654.719    
    923000   1.188294       0.0023323615   0.0029714448   21.126096      19.361479      1.7646166     -1.1580542      18683.024    
    924000   1.1860243      0.0023323615  -0.00055850226  21.079278      19.318032      1.761246      -1.2251041      18802.75     
    925000   1.0233334      0.0023323615  -0.003214467    20.975449      19.455799      1.51965       -1.2182593      18619.321    
    926000   1.2051274      0.0023323615   0.0041391917   21.375211      19.585597      1.7896141     -1.1288134      18886.126    
    927000   1.0666767      0.0023323615   0.00083609791  20.767576      19.183562      1.5840148     -1.2894544      18864.835    
    928000   1.1227625      0.0023323615   0.0036476217   21.140549      19.473246      1.6673024     -1.0881659      18738.477    
    929000   0.88863155     0.0023323615   0.00051982456  20.754543      19.434925      1.3196178     -1.1764125      18888.41     
    930000   0.93273933     0.0023323615   0.0019881791   20.570751      19.185633      1.3851179     -1.2145573      18631.205    
    931000   1.0035299      0.0023323615   0.0018207937   20.594204      19.103962      1.4902419     -1.3564039      18498.562    
    932000   1.137042       0.0023323615   0.0019330176   20.793901      19.105394      1.6885074     -1.3924533      18443.547    
    933000   0.94865127     0.0023323615   0.0008780351   20.775781      19.367034      1.4087471     -1.2583682      18445.973    
    934000   0.94840121     0.0023323615   0.0047581332   20.701519      19.293143      1.4083758     -1.325199       18430.66     
    935000   0.99388225     0.0023323615   0.00042404541  20.69299       19.217074      1.4759151     -1.3242732      18488.451    
    936000   0.99143346     0.0023323615  -0.00045751835  20.486497      19.014218      1.4722787     -1.4163679      18573.939    
    937000   0.93972603     0.0023323615  -0.0033900381   20.865293      19.4698        1.3954931     -1.0948753      18617.356    
    938000   1.0419178      0.0023323615   0.003892218    21.035084      19.487836      1.547248      -1.0206225      18646.686    
    939000   1.0398071      0.0023323615   0.00024139682  20.97622       19.432106      1.5441135     -1.112465       18772.087    
    940000   0.93966158     0.0023323615   0.00020996942  20.752065      19.356667      1.3953974     -1.1633618      18645.474    
    941000   0.97863398     0.0023323615  -0.0022527398   20.986606      19.533334      1.4532715     -0.91877113     18779.575    
    942000   1.1694208      0.0023323615  -0.0011991781   21.095054      19.358464      1.7365898     -1.1156372      18487.797    
    943000   1.019107       0.0023323615   0.00094191654  20.674964      19.16159       1.5133738     -1.2269323      18482.795    
    944000   1.0287983      0.0023323615  -0.001964867    21.095605      19.567839      1.5277655     -1.0456147      18396.995    
    945000   0.95627719     0.0023323615   0.0031439911   20.524345      19.104274      1.4200716     -1.3886466      18284.93     
    946000   0.98849092     0.0023323615   0.00071509254  20.647228      19.179319      1.467909      -1.2782507      18321.026    
    947000   0.91493608     0.0023323615   0.0034667625   20.560452      19.201772      1.3586801     -1.2685681      18279.739    
    948000   1.1258915      0.0023323615   0.0031116505   20.926128      19.25418       1.6719489     -1.2857955      18439.707    
    949000   0.9541496      0.0023323615  -0.0010728259   20.780037      19.363125      1.4169121     -1.1578729      18651.861    
    950000   1.0301511      0.0023323615  -0.0017691314   21.084811      19.555036      1.5297744     -0.93670098     18625.371    
    951000   0.96744267     0.0023323615  -0.0014796683   20.95599       19.519337      1.4366524     -1.0140898      18723.341    
    952000   0.962153       0.0023323615  -0.0017056167   20.852225      19.423428      1.4287972     -0.97021338     18748.677    
    953000   1.0029022      0.0023323615  -0.0017571425   20.849041      19.359731      1.4893097     -1.1496357      18734.766    
    954000   0.94552444     0.0023323615  -0.0024464067   20.900612      19.496508      1.4041038     -1.0894176      18663.579    
    955000   1.0275362      0.0023323615   0.0022879514   21.073618      19.547726      1.5258913     -1.0815468      18677.675    
    956000   0.97294728     0.0023323615  -0.0014814871   20.990793      19.545966      1.4448267     -1.0794         18652.185    
    957000   0.93461073     0.0023323615  -0.0019580292   20.877815      19.489918      1.3878969     -1.153508       18523.321    
    958000   0.93103064     0.0023323615  -0.0034055515   20.740251      19.357671      1.3825805     -1.2393739      18404.912    
    959000   1.0371747      0.0023323615  -0.0024754626   20.733406      19.193202      1.5402045     -1.2984945      18544.204    
    960000   0.95214508     0.0023323615  -0.0023113104   20.693062      19.279126      1.4139354     -1.1719413      18496.55     
    961000   0.94482026     0.0023323615  -0.0008944943   20.824417      19.421359      1.4030581     -1.1826185      18534.82     
    962000   1.1125722      0.0023323615  -0.0032008519   21.129818      19.477649      1.6521697     -0.92517476     18861.804    
    963000   1.0886268      0.0023323615   0.0040523471   21.149206      19.532595      1.6166109     -0.93082085     19627.309    
    964000   1.0146067      0.0023323615   0.0041362379   20.821116      19.314425      1.506691      -1.0314164      19518.158    
    965000   1.3137107      0.0023323615  -0.00064451742  21.344118      19.393258      1.9508604     -1.1390302      19212.33     
    966000   1.0239788      0.0023323615  -0.004400412    21.061444      19.540835      1.5206086     -0.96139279     19315.375    
    967000   0.96109921     0.0023323615   0.0014836868   20.656348      19.229116      1.4272323     -1.2421703      18821.78     
    968000   0.99153035     0.0023323615   6.7569333e-05  20.730959      19.258536      1.4724226     -1.0959387      18548.208    
    969000   1.0208418      0.0023323615   0.0034341263   21.067692      19.551742      1.5159501     -1.0286502      18883.633    
    970000   0.94953292     0.0023323615  -0.002074796    21.050684      19.640627      1.4100564     -0.97249234     18676.042    
    971000   1.1118225      0.0023323615  -0.00031837021  20.860121      19.209065      1.6510564     -1.2171773      18685.227    
    972000   0.97147435     0.0023323615   0.00045151152  20.729873      19.287233      1.4426394     -1.1841992      18876.051    
    973000   0.93461476     0.0023323615   0.00023784721  20.660289      19.272386      1.3879029     -1.147285       18664.372    
    974000   0.86353936     0.0023323615   0.0024271792   20.521512      19.239156      1.282356      -1.2451708      18661.792    
    975000   1.0953734      0.0023323615  -0.0033122398   20.866448      19.239819      1.6266295     -1.2321946      18611.305    
    976000   0.84052515     0.0023323615  -0.001754622    20.516455      19.268276      1.2481798     -1.1886803      18561.477    
    977000   1.0908017      0.0023323615   0.0035664404   20.932702      19.312862      1.6198405     -1.2466884      18602.949    
    978000   0.94585284     0.0023323615   0.0013090064   20.758015      19.353424      1.4045915     -1.2524808      18447.484    
    979000   0.85666559     0.0023323615  -0.0032616217   20.664518      19.392369      1.2721484     -1.2323262      18626.194    
    980000   0.98441867     0.0023323615  -0.0034741519   20.930781      19.468919      1.4618617     -1.1286531      18523.245    
    981000   1.1715553      0.0023323615  -0.0017607742   20.950944      19.211184      1.7397596     -1.3681745      18566.912    
    982000   1.0516049      0.0023323615   0.00080868871  20.793038      19.231405      1.5616332     -1.3255172      18449.195    
    983000   1.0396705      0.0023323615   0.0028071901   20.940608      19.396697      1.5439108     -1.0680434      18670.306    
    984000   0.98304472     0.0023323615   0.00014159286  20.86883       19.409008      1.4598214     -1.2732417      18458.499    
    985000   1.0209697      0.0023323615  -0.0012921881   20.738015      19.221875      1.51614       -1.3358017      18387.644    
    986000   0.91503785     0.0023323615   0.0013788427   20.58516       19.226329      1.3588312     -1.2547119      18467.222    
    987000   0.96686009     0.0023323615   0.00096452623  20.658579      19.222792      1.4357872     -1.1458032      18593.977    
    988000   1.0389146      0.0023323615   0.0025585665   20.818032      19.275244      1.5427881     -1.1773398      18990.66     
    989000   1.0396357      0.0023323615   0.0027876225   20.925634      19.381775      1.543859      -1.077498       20027.263    
    990000   1.0749549      0.0023323615  -0.0028077747   21.232036      19.635728      1.596308      -0.86338237     20370.352    
    991000   0.81838713     0.0023323615   0.00522343     20.682646      19.467341      1.2153049     -1.1449086      19301.126    
    992000   0.85374824     0.0023323615  -0.0019486419   20.39939       19.131574      1.2678161     -1.3930473      18399.752    
    993000   0.92621602     0.0023323615  -0.0010526948   20.487488      19.112057      1.3754308     -1.4119182      18256.956    
    994000   1.0058859      0.0023323615   0.00079054233  20.416177      18.922437      1.4937406     -1.5446401      18226.069    
    995000   0.95729594     0.0023323615  -0.0025297468   20.489654      19.068069      1.4215845     -1.3606106      18295.766    
    996000   0.90226789     0.0023323615   0.0028085286   20.634404      19.294537      1.3398678     -1.3614873      18316.662    
    997000   1.066492       0.0023323615   0.0027890019   20.624062      19.040322      1.5837407     -1.4055379      18398.138    
    998000   1.0696637      0.0023323615   0.0025861838   20.763622      19.175172      1.5884506     -1.2790034      18315.025    
    999000   1.045177       0.0023323615  -0.00040661706  20.819018      19.266931      1.5520878     -1.1703422      18362.717    
   1000000   0.85809422     0.0023323615  -0.0005136962   20.503595      19.229326      1.2742699     -1.3203615      18395.906    
Loop time of 52.9488 on 1 procs for 1000000 steps with 100 atoms

Performance: 8158819.774 tau/day, 18886.157 timesteps/s
99.4% CPU use with 1 MPI tasks x 1 OpenMP threads

MPI task timing breakdown:
Section |  min time  |  avg time  |  max time  |%varavg| %total
---------------------------------------------------------------
Pair    | 43.871     | 43.871     | 43.871     |   0.0 | 82.86
Bond    | 1.2645     | 1.2645     | 1.2645     |   0.0 |  2.39
Neigh   | 3.8447     | 3.8447     | 3.8447     |   0.0 |  7.26
Comm    | 1.4056     | 1.4056     | 1.4056     |   0.0 |  2.65
Output  | 0.214      | 0.214      | 0.214      |   0.0 |  0.40
Modify  | 1.9978     | 1.9978     | 1.9978     |   0.0 |  3.77
Other   |            | 0.3511     |            |       |  0.66

Nlocal:            100 ave         100 max         100 min
Histogram: 1 0 0 0 0 0 0 0 0 0
Nghost:            308 ave         308 max         308 min
Histogram: 1 0 0 0 0 0 0 0 0 0
Neighs:           4848 ave        4848 max        4848 min
Histogram: 1 0 0 0 0 0 0 0 0 0

Total # of neighbors = 4848
Ave neighs/atom = 48.48
Ave special neighs/atom = 1.98
Neighbor list builds = 97966
Dangerous builds = 80684

write_data      ${outputfile_assembled} nofix nocoeff
write_data      7_assembled.data nofix nocoeff
System init for write_data ...
Generated 0 of 6 mixed pair_coeff terms from geometric mixing rule

Total wall time: 0:00:54
