LAMMPS (23 Jun 2022 - Update 1)
OMP_NUM_THREADS environment is not set. Defaulting to 1 thread. (src/comm.cpp:98)
  using 1 OpenMP thread(s) per MPI task


variable        runtime equal 1000000
variable		subsample_rate equal 1000

variable		outputfile_created string '3_created.data'
variable		outputfile_relaxed string '5_relaxed.data'
variable		outputfile_selfasb string '6_a_self_assemble.lammpstrj'
variable		outputfile_trajlin string '6_b_trajlin.data'
variable		outputfile_assembled string '7_assembled.data'

units           lj
atom_style      full
dimension       3
boundary        p p p
timestep        0.005

read_data       ${outputfile_created}
read_data       3_created.data
Reading data file ...
  orthogonal box = (0 0 0) to (35 35 35)
  1 by 1 by 1 MPI processor grid
  reading atoms ...
  100 atoms
  reading velocities ...
  100 velocities
  scanning bonds ...
  1 = max bonds/atom
  reading bonds ...
  99 bonds
Finding 1-2 1-3 1-4 neighbors ...
  special bond factors lj:    0        0        0       
  special bond factors coul:  0        0        0       
     2 = max # of 1-2 neighbors
     2 = max # of 1-3 neighbors
     4 = max # of 1-4 neighbors
     6 = max # of special neighbors
  special bonds CPU = 0.000 seconds
  read_data CPU = 0.006 seconds

bond_style      fene
bond_coeff      * 30.0 1.5 1.0 1.0
special_bonds   fene
Finding 1-2 1-3 1-4 neighbors ...
  special bond factors lj:    0        1        1       
  special bond factors coul:  0        1        1       
     2 = max # of 1-2 neighbors
     6 = max # of special neighbors
  special bonds CPU = 0.000 seconds

variable        Temp equal 1.0
variable        velSeed equal 926458

velocity        all create ${Temp} ${velSeed}
velocity        all create 1 ${velSeed}
velocity        all create 1 926458

### Output
thermo_style    custom step temp density press etotal pe ke epair spcpu
thermo          1000

###########################################################################
# Soft relaxation (to remove overlaps of particles)
######################################################################

pair_style      soft 1.0
pair_coeff      * * 0.0
variable        prefactor equal ramp(0,300)
fix             rampSoft all adapt 1 pair soft a * * v_prefactor

minimize        0.0 1.0e-8 1000 100000
WARNING: Using 'neigh_modify every 1 delay 0 check yes' setting during minimization (src/min.cpp:187)
Generated 0 of 6 mixed pair_coeff terms from geometric mixing rule
Neighbor list info ...
  update every 1 steps, delay 0 steps, check yes
  max neighbors/atom: 2000, page size: 100000
  master list distance cutoff = 1.3
  ghost atom cutoff = 1.3
  binsize = 0.65, bins = 54 54 54
  1 neighbor lists, perpetual/occasional/extra = 1 0 0
  (1) pair soft, perpetual
      attributes: half, newton on
      pair build: half/bin/newton
      stencil: half/bin/3d
      bin: standard
WARNING: Communication cutoff 1.3 is shorter than a bond length based estimate of 1.7550000000000001. This may lead to errors. (src/comm.cpp:727)
Per MPI rank memory allocation (min/avg/max) = 8.346 | 8.346 | 8.346 Mbytes
   Step          Temp         Density         Press          TotEng         PotEng         KinEng         E_pair         S/CPU     
         0   1              0.0023323615  -0.0039617958   21.524174      20.039174      1.485          0              0            
       362   1              0.0023323615   0.0023090379   21.485548      20.000548      1.485          0              64147.24     
Loop time of 0.00564746 on 1 procs for 362 steps with 100 atoms

92.9% CPU use with 1 MPI tasks x 1 OpenMP threads

Minimization stats:
  Stopping criterion = force tolerance
  Energy initial, next-to-last, final = 
      20.0391741078675   20.0005480767337   20.0005480767337
  Force two-norm initial, final = 11.878422 7.9509778e-09
  Force max component initial, final = 6.6117807 1.3572772e-09
  Final line search alpha, max atom move = 1 1.3572772e-09
  Iterations, force evaluations = 362 738

MPI task timing breakdown:
Section |  min time  |  avg time  |  max time  |%varavg| %total
---------------------------------------------------------------
Pair    | 0.00021483 | 0.00021483 | 0.00021483 |   0.0 |  3.80
Bond    | 0.0025627  | 0.0025627  | 0.0025627  |   0.0 | 45.38
Neigh   | 0.0016424  | 0.0016424  | 0.0016424  |   0.0 | 29.08
Comm    | 0.00021076 | 0.00021076 | 0.00021076 |   0.0 |  3.73
Output  | 0          | 0          | 0          |   0.0 |  0.00
Modify  | 0          | 0          | 0          |   0.0 |  0.00
Other   |            | 0.001017   |            |       | 18.00

Nlocal:            100 ave         100 max         100 min
Histogram: 1 0 0 0 0 0 0 0 0 0
Nghost:             20 ave          20 max          20 min
Histogram: 1 0 0 0 0 0 0 0 0 0
Neighs:              0 ave           0 max           0 min
Histogram: 1 0 0 0 0 0 0 0 0 0

Total # of neighbors = 0
Ave neighs/atom = 0
Ave special neighs/atom = 1.98
Neighbor list builds = 17
Dangerous builds = 0

fix             nvtSoft all nvt temp ${Temp} ${Temp} 0.5
fix             nvtSoft all nvt temp 1 ${Temp} 0.5
fix             nvtSoft all nvt temp 1 1 0.5
run             100000
Generated 0 of 6 mixed pair_coeff terms from geometric mixing rule
WARNING: Communication cutoff 1.3 is shorter than a bond length based estimate of 1.7550000000000001. This may lead to errors. (src/comm.cpp:727)
Per MPI rank memory allocation (min/avg/max) = 7.221 | 7.221 | 7.221 Mbytes
   Step          Temp         Density         Press          TotEng         PotEng         KinEng         E_pair         S/CPU     
       362   1              0.0023323615   0.0023090379   21.485548      20.000548      1.485          0              0            
      1000   0.90989032     0.0023323615  -0.0021940042   21.776974      20.425787      1.3511871      0.00036425437  70543.235    
      2000   0.86546688     0.0023323615   0.0034714157   21.677128      20.39191       1.2852183      0.0025814786   73280.431    
      3000   0.98199538     0.0023323615   0.0028144228   21.866132      20.407869      1.4582631      0.0011756043   71803.323    
      4000   1.004495       0.0023323615  -0.0014058211   21.945624      20.453949      1.4916751      0.011986179    72187.291    
      5000   1.1222705      0.0023323615   0.0044495116   21.986385      20.319813      1.6665718      0.0050317639   70300.401    
      6000   1.0538243      0.0023323615   0.0023957538   21.985713      20.420784      1.564929       0.012100514    73127.688    
      7000   1.0210598      0.0023323615  -0.00038820026  21.904665      20.388391      1.5162738      0              75408.998    
      8000   0.94819751     0.0023323615   0.0024943091   21.747889      20.339816      1.4080733      0              75372.269    
      9000   0.92364502     0.0023323615   0.0020053029   21.724166      20.352554      1.3716129      1.7780894e-05  74613.385    
     10000   0.86685188     0.0023323615   0.00078277366  21.644879      20.357604      1.287275       0.0098636418   74796.212    
     11000   1.0057103      0.0023323615   0.00010113276  21.8558        20.362321      1.4934798      0.020705341    74810.402    
     12000   0.97901664     0.0023323615  -0.0026996968   21.871206      20.417366      1.4538397      0.0052928539   74216.922    
     13000   0.97718436     0.0023323615  -6.1641422e-06  21.963706      20.512587      1.4511188      0.025022446    74168.785    
     14000   1.0530014      0.0023323615  -0.0009993112   21.947994      20.384287      1.5637071      0.0020860456   73555.356    
     15000   0.99094527     0.0023323615   0.0011068478   21.895146      20.423592      1.4715537      0.0015091113   75004.575    
     16000   0.91285091     0.0023323615  -0.00025424173  21.87524       20.519657      1.3555836      0.0047853639   74013.137    
     17000   0.82806978     0.0023323615  -0.00054698156  21.701984      20.472301      1.2296836      0              74505.333    
     18000   1.043278       0.0023323615  -6.6143919e-05  22.003299      20.454031      1.5492679      0.0034319132   75362.937    
     19000   1.0879249      0.0023323615  -0.0017804642   21.998985      20.383416      1.6155685      0.015376175    73982.194    
     20000   1.1144506      0.0023323615   0.0025198298   22.190904      20.535944      1.6549592      0              75096.161    
     21000   1.0427751      0.0023323615   0.0011345349   22.099492      20.550971      1.548521       0.00040047813  75392.078    
     22000   1.0586695      0.0023323615   0.0017882747   22.05673       20.484606      1.5721242      0              75167.42     
     23000   1.0058426      0.0023323615  -0.0055245362   21.954628      20.460951      1.4936763      0.0027619031   74034.874    
     24000   0.98273442     0.0023323615   0.0015147357   21.862067      20.402707      1.4593606      0              73062.916    
     25000   0.95835343     0.0023323615   0.0017808774   21.937761      20.514606      1.4231548      0.00020839942  73772.879    
     26000   0.93993778     0.0023323615  -0.0021777292   21.884849      20.489042      1.3958076      0.0088889834   74395.496    
     27000   0.9308188      0.0023323615  -0.00011239942  21.842252      20.459986      1.3822659      0.021612409    73534.332    
     28000   1.0149581      0.0023323615   0.0041996387   21.906846      20.399633      1.5072129      0.0064059022   74109.361    
     29000   0.92841138     0.0023323615  -2.5398808e-05  21.987185      20.608494      1.3786909      0.0046112484   73580.036    
     30000   1.021043       0.0023323615   0.001589158    22.097958      20.581709      1.5162489      0.016799508    72069.958    
     31000   1.0465985      0.0023323615  -0.0021744286   22.037917      20.483718      1.5541987      0.0057879149   74443.041    
     32000   0.98907108     0.0023323615  -0.0015558606   22.044089      20.575318      1.4687705      0.009448173    74456.815    
     33000   1.0918536      0.0023323615  -0.0025643847   22.039275      20.417873      1.6214025      0              73449.001    
     34000   0.99801543     0.0023323615   0.0016279766   21.932339      20.450286      1.4820529      0.017384617    75668.768    
     35000   1.0352271      0.0023323615  -0.0052971711   22.076004      20.538692      1.5373122      0.00010473809  74482.597    
     36000   1.1141579      0.0023323615  -0.00093279925  22.222491      20.567966      1.6545245      0.00033678641  75496.09     
     37000   1.0369415      0.0023323615   0.00013065175  22.217841      20.677983      1.5398581      0.013788831    74340.19     
     38000   1.0515596      0.0023323615   0.0021717558   22.070766      20.5092        1.561566       0.0067894678   74510.618    
     39000   1.0238495      0.0023323615   0.00026414509  22.040141      20.519725      1.5204165      0.00044464649  74005.786    
     40000   1.0749111      0.0023323615  -0.0026849368   22.039327      20.443084      1.596243       0.012651334    72578.131    
     41000   0.99070886     0.0023323615  -0.0030385564   22.03241       20.561207      1.4712027      0.00092855646  75829.16     
     42000   0.95315224     0.0023323615   0.0019788197   21.965263      20.549832      1.4154311      0.020233689    74060.803    
     43000   1.0644183      0.0023323615  -0.0011168725   22.287172      20.706511      1.5806611      0.039694129    74247.511    
     44000   1.0253747      0.0023323615  -0.006676522    22.066233      20.543552      1.5226814      0              73330.341    
     45000   0.94179556     0.0023323615  -0.0047206018   21.970644      20.572077      1.3985664      0.019869988    73339.554    
     46000   1.0083495      0.0023323615  -0.0017646918   21.972114      20.474715      1.497399       0.00026040605  73572.657    
     47000   0.98767959     0.0023323615  -0.00080218158  22.091674      20.62497       1.4667042      0.024266258    73403.196    
     48000   1.1473449      0.0023323615  -0.0025885687   22.080512      20.376705      1.7038072      0.00065962995  74172.031    
     49000   1.0679312      0.0023323615   0.0017688272   21.970482      20.384604      1.5858779      0.014142422    75267.182    
     50000   0.9581935      0.0023323615   0.0014398836   21.955202      20.532284      1.4229173      0.0055011948   75090.336    
     51000   1.0215759      0.0023323615  -0.00093292688  21.934681      20.41764       1.5170402      0              74657.921    
     52000   0.98079591     0.0023323615   0.0040701936   21.977374      20.520892      1.4564819      0.0020862422   75258.492    
     53000   1.0090927      0.0023323615   0.0013324753   22.095438      20.596935      1.4985027      0              74578.54     
     54000   0.97519627     0.0023323615   0.0013260734   22.070151      20.621984      1.4481665      0.026885444    75438.181    
     55000   1.1805087      0.0023323615  -0.001586238    22.424088      20.671033      1.7530554      0.024690954    74905.727    
     56000   0.98387121     0.0023323615   0.0037155145   22.104425      20.643376      1.4610487      0.01435493     74156.712    
     57000   1.0723812      0.0023323615  -0.0037916262   22.122726      20.53024       1.592486       0.013635549    74793.918    
     58000   1.0152349      0.0023323615   0.00021908047  22.082827      20.575203      1.5076238      0.00077375639  74039.873    
     59000   1.1424502      0.0023323615  -0.0052108657   22.30072       20.604182      1.6965385      0.013308184    75564.737    
     60000   1.0359703      0.0023323615  -0.00097887545  22.188218      20.649802      1.538416       0.00011346294  74308.813    
     61000   1.1646839      0.0023323615  -0.002085017    22.239945      20.51039       1.7295556      0.012918477    76221.766    
     62000   1.101836       0.0023323615   0.0010338878   22.171386      20.53516       1.6362265      0.001396566    74863.535    
     63000   0.96616435     0.0023323615   0.00097550571  21.903821      20.469067      1.4347541      0.013027663    76269.989    
     64000   1.0068907      0.0023323615  -0.0020278726   22.061652      20.566419      1.4952327      0.013750276    74901.289    
     65000   0.98723233     0.0023323615   0.0022441476   22.031073      20.565033      1.46604        0.0066686189   75411.67     
     66000   1.0273881      0.0023323615  -0.0003515278   22.183579      20.657908      1.5256713      0              73422.851    
     67000   0.96528212     0.0023323615  -0.00014822656  21.9396        20.506156      1.4334439      0.010365557    75452.496    
     68000   1.069702       0.0023323615   9.4754668e-05  22.081119      20.492611      1.5885075      0.00049153926  72711.847    
     69000   1.1229502      0.0023323615   0.0011504079   22.200329      20.532748      1.6675811      0.0068454249   75237.106    
     70000   1.0062775      0.0023323615  -0.00085311964  22.094021      20.599699      1.4943221      0.013222355    73986.693    
     71000   1.0906935      0.0023323615   0.00015260357  22.145362      20.525682      1.6196798      0.018338513    74280.442    
     72000   1.010401       0.0023323615  -6.0487182e-06  22.154105      20.653659      1.5004455      0.0013793953   73510.937    
     73000   1.1177599      0.0023323615  -0.0034084797   22.254435      20.594562      1.6598735      0.00011231735  76143.096    
     74000   0.9768019      0.0023323615   0.00016143893  22.07312       20.622569      1.4505508      0.0084515956   74174.622    
     75000   1.1360996      0.0023323615   0.002159116    22.161595      20.474487      1.6871079      0.0089909162   74772.348    
     76000   0.97379329     0.0023323615  -0.00068458621  21.988928      20.542845      1.446083       0              74322.366    
     77000   0.94876793     0.0023323615  -0.0016073976   21.923496      20.514575      1.4089204      0.017745108    74412.574    
     78000   0.83947996     0.0023323615  -0.00062768559  21.726727      20.480099      1.2466277      0.0054510099   74773.634    
     79000   1.0090614      0.0023323615  -0.00080262643  22.068192      20.569736      1.4984562      0.00023011166  75736.691    
     80000   1.1217643      0.0023323615  -0.0038177864   22.367902      20.702082      1.66582        0.032902439    74530.538    
     81000   1.0240158      0.0023323615   0.00023547123  22.031597      20.510933      1.5206635      0.0068767308   73858.746    
     82000   1.003236       0.0023323615  -0.0022802982   21.894199      20.404393      1.4898055      0.019136282    72786.826    
     83000   1.0554159      0.0023323615   0.004011718    22.104562      20.537269      1.5672927      0.0080869707   72121.203    
     84000   0.83527346     0.0023323615  -0.0034122221   21.874648      20.634267      1.2403811      0.0030083664   74277.457    
     85000   1.036002       0.0023323615   0.0013573923   21.962923      20.42446       1.5384629      0.015709144    74816.229    
     86000   0.9432002      0.0023323615  -0.0032183248   21.913588      20.512936      1.4006523      0.013730309    74842.317    
     87000   0.95566008     0.0023323615  -0.00049614223  21.91653       20.497375      1.4191552      0.0035862035   73962.462    
     88000   0.93373351     0.0023323615  -0.00097093893  21.870485      20.483891      1.3865943      0.0018212145   73480.796    
     89000   0.9684944      0.0023323615  -0.00047342045  21.973429      20.535215      1.4382142      0.00087524744  74445.264    
     90000   0.98293324     0.0023323615  -0.0032204602   22.050919      20.591263      1.4596559      0.015353933    75517.801    
     91000   1.0832827      0.0023323615   0.0048517083   22.11977       20.511095      1.6086749      0.0052867789   76525.293    
     92000   0.85899662     0.0023323615  -0.0013049519   21.765697      20.490087      1.27561        0.0024124001   75368.509    
     93000   0.96176266     0.0023323615  -4.4223672e-05  21.874222      20.446004      1.4282176      0.0045653365   75908.974    
     94000   0.96019503     0.0023323615   0.00024459347  21.944954      20.519064      1.4258896      3.8053462e-05  75449.468    
     95000   0.94702149     0.0023323615  -0.0033658915   21.86315       20.456823      1.4063269      0              76177.435    
     96000   0.91119348     0.0023323615  -0.0013197298   21.825018      20.471896      1.3531223      0.00043282989  74607.306    
     97000   1.0016687      0.0023323615  -0.0019514304   22.013024      20.525546      1.487478       0.0048369955   74175.337    
     98000   1.02143        0.0023323615  -0.0057874974   22.177965      20.661142      1.5168235      0              73158.776    
     99000   1.032786       0.0023323615   0.0018228259   21.975336      20.441649      1.5336871      7.1595851e-05  76402.517    
    100000   1.0594928      0.0023323615   0.0036169719   22.011024      20.437677      1.5733468      0.00032948157  74596.426    
    100362   1.1904942      0.0023323615  -0.00089755607  22.316856      20.548972      1.7678839      0.00063845255  74110.363    
Loop time of 1.34482 on 1 procs for 100000 steps with 100 atoms

Performance: 32123149.806 tau/day, 74359.143 timesteps/s
99.2% CPU use with 1 MPI tasks x 1 OpenMP threads

MPI task timing breakdown:
Section |  min time  |  avg time  |  max time  |%varavg| %total
---------------------------------------------------------------
Pair    | 0.0501     | 0.0501     | 0.0501     |   0.0 |  3.73
Bond    | 0.14547    | 0.14547    | 0.14547    |   0.0 | 10.82
Neigh   | 0.80691    | 0.80691    | 0.80691    |   0.0 | 60.00
Comm    | 0.05929    | 0.05929    | 0.05929    |   0.0 |  4.41
Output  | 0.0010872  | 0.0010872  | 0.0010872  |   0.0 |  0.08
Modify  | 0.24758    | 0.24758    | 0.24758    |   0.0 | 18.41
Other   |            | 0.03439    |            |       |  2.56

Nlocal:            100 ave         100 max         100 min
Histogram: 1 0 0 0 0 0 0 0 0 0
Nghost:             60 ave          60 max          60 min
Histogram: 1 0 0 0 0 0 0 0 0 0
Neighs:             36 ave          36 max          36 min
Histogram: 1 0 0 0 0 0 0 0 0 0

Total # of neighbors = 36
Ave neighs/atom = 0.36
Ave special neighs/atom = 1.98
Neighbor list builds = 9821
Dangerous builds = 8265
unfix           nvtSoft
unfix           rampSoft
reset_timestep  0

write_data      ${outputfile_relaxed}
write_data      5_relaxed.data
System init for write_data ...
Generated 0 of 6 mixed pair_coeff terms from geometric mixing rule
WARNING: Communication cutoff 1.3 is shorter than a bond length based estimate of 1.7550000000000001. This may lead to errors. (src/comm.cpp:727)
WARNING: Not all mixed pair coeffs generated from mixing. Use write_data with 'pair ij' option to store all pair coeffs. (src/write_data.cpp:309)

###########################################################################
# Full LJ with Coulomb
######################################################################

# Cutoffs and parameters:
# - Values: Marcel Verkade's Bachelor Thesis
# - Mapping to atom groups: Patrick Onck's paper
# - 1: aliphatic, 2: aromatic, 3: anion, 4: cation
# pair_style	lj/cut/coul/cut <lj_cut_global> <coul_cut_global>
# pair_coeff	<type_1>  <type_2>  <eps>  <sigma>  <r_cut_lj>  <r_cut_coul>

# Problem: Onck's model is much more complex, and Marcel has no sigma reported
# Using sigma=1 randomly

variable		glob_ljeps equal 1.0
variable		glob_ljsig 	equal 1.0
variable		glob_coulcut equal 10.0
variable		att_ljcut equal 2.50
variable		rep_ljcut equal 1.12

pair_style		lj/cut/coul/cut 						${att_ljcut} 	${glob_coulcut}
pair_style		lj/cut/coul/cut 						2.5 	${glob_coulcut}
pair_style		lj/cut/coul/cut 						2.5 	10
pair_coeff		1 1 	${glob_ljeps} 	${glob_ljsig}	${att_ljcut} 	${glob_coulcut}
pair_coeff		1 1 	1 	${glob_ljsig}	${att_ljcut} 	${glob_coulcut}
pair_coeff		1 1 	1 	1	${att_ljcut} 	${glob_coulcut}
pair_coeff		1 1 	1 	1	2.5 	${glob_coulcut}
pair_coeff		1 1 	1 	1	2.5 	10
pair_coeff		1 2 	${glob_ljeps} 	${glob_ljsig}	${att_ljcut} 	${glob_coulcut}
pair_coeff		1 2 	1 	${glob_ljsig}	${att_ljcut} 	${glob_coulcut}
pair_coeff		1 2 	1 	1	${att_ljcut} 	${glob_coulcut}
pair_coeff		1 2 	1 	1	2.5 	${glob_coulcut}
pair_coeff		1 2 	1 	1	2.5 	10
pair_coeff		1 3 	${glob_ljeps} 	${glob_ljsig}	${rep_ljcut} 	${glob_coulcut}
pair_coeff		1 3 	1 	${glob_ljsig}	${rep_ljcut} 	${glob_coulcut}
pair_coeff		1 3 	1 	1	${rep_ljcut} 	${glob_coulcut}
pair_coeff		1 3 	1 	1	1.12 	${glob_coulcut}
pair_coeff		1 3 	1 	1	1.12 	10
pair_coeff		1 4 	${glob_ljeps} 	${glob_ljsig}	${rep_ljcut} 	${glob_coulcut}
pair_coeff		1 4 	1 	${glob_ljsig}	${rep_ljcut} 	${glob_coulcut}
pair_coeff		1 4 	1 	1	${rep_ljcut} 	${glob_coulcut}
pair_coeff		1 4 	1 	1	1.12 	${glob_coulcut}
pair_coeff		1 4 	1 	1	1.12 	10
pair_coeff		2 2 	${glob_ljeps} 	${glob_ljsig}	${att_ljcut} 	${glob_coulcut}
pair_coeff		2 2 	1 	${glob_ljsig}	${att_ljcut} 	${glob_coulcut}
pair_coeff		2 2 	1 	1	${att_ljcut} 	${glob_coulcut}
pair_coeff		2 2 	1 	1	2.5 	${glob_coulcut}
pair_coeff		2 2 	1 	1	2.5 	10
pair_coeff		2 3 	${glob_ljeps} 	${glob_ljsig}	${rep_ljcut} 	${glob_coulcut}
pair_coeff		2 3 	1 	${glob_ljsig}	${rep_ljcut} 	${glob_coulcut}
pair_coeff		2 3 	1 	1	${rep_ljcut} 	${glob_coulcut}
pair_coeff		2 3 	1 	1	1.12 	${glob_coulcut}
pair_coeff		2 3 	1 	1	1.12 	10
pair_coeff		2 4 	${glob_ljeps} 	${glob_ljsig}	${att_ljcut} 	${glob_coulcut}
pair_coeff		2 4 	1 	${glob_ljsig}	${att_ljcut} 	${glob_coulcut}
pair_coeff		2 4 	1 	1	${att_ljcut} 	${glob_coulcut}
pair_coeff		2 4 	1 	1	2.5 	${glob_coulcut}
pair_coeff		2 4 	1 	1	2.5 	10
pair_coeff		3 3 	${glob_ljeps} 	${glob_ljsig}	${rep_ljcut} 	${glob_coulcut}
pair_coeff		3 3 	1 	${glob_ljsig}	${rep_ljcut} 	${glob_coulcut}
pair_coeff		3 3 	1 	1	${rep_ljcut} 	${glob_coulcut}
pair_coeff		3 3 	1 	1	1.12 	${glob_coulcut}
pair_coeff		3 3 	1 	1	1.12 	10
pair_coeff		3 4 	${glob_ljeps} 	${glob_ljsig}	${att_ljcut} 	${glob_coulcut}
pair_coeff		3 4 	1 	${glob_ljsig}	${att_ljcut} 	${glob_coulcut}
pair_coeff		3 4 	1 	1	${att_ljcut} 	${glob_coulcut}
pair_coeff		3 4 	1 	1	2.5 	${glob_coulcut}
pair_coeff		3 4 	1 	1	2.5 	10
pair_coeff		4 4 	${glob_ljeps} 	${glob_ljsig}	${rep_ljcut} 	${glob_coulcut}
pair_coeff		4 4 	1 	${glob_ljsig}	${rep_ljcut} 	${glob_coulcut}
pair_coeff		4 4 	1 	1	${rep_ljcut} 	${glob_coulcut}
pair_coeff		4 4 	1 	1	1.12 	${glob_coulcut}
pair_coeff		4 4 	1 	1	1.12 	10


fix             noDriftRot 	all momentum 10 linear 1 1 1 angular
fix             nvt1 		all nvt temp ${Temp} ${Temp} 0.5
fix             nvt1 		all nvt temp 1 ${Temp} 0.5
fix             nvt1 		all nvt temp 1 1 0.5

# dump          assemble 	all custom 1000 				${outputfile_selfasb} id type xu yu zu vx vy vz
dump            lindump 	all custom ${subsample_rate} 	${outputfile_trajlin} id type xu yu zu vx vy vz
dump            lindump 	all custom 1000 	${outputfile_trajlin} id type xu yu zu vx vy vz
dump            lindump 	all custom 1000 	6_b_trajlin.data id type xu yu zu vx vy vz

run             ${runtime}
run             1000000
Generated 0 of 6 mixed pair_coeff terms from geometric mixing rule
Neighbor list info ...
  update every 1 steps, delay 10 steps, check yes
  max neighbors/atom: 2000, page size: 100000
  master list distance cutoff = 10.3
  ghost atom cutoff = 10.3
  binsize = 5.15, bins = 7 7 7
  1 neighbor lists, perpetual/occasional/extra = 1 0 0
  (1) pair lj/cut/coul/cut, perpetual
      attributes: half, newton on
      pair build: half/bin/newton
      stencil: half/bin/3d
      bin: standard
Per MPI rank memory allocation (min/avg/max) = 7.712 | 7.712 | 7.712 Mbytes
   Step          Temp         Density         Press          TotEng         PotEng         KinEng         E_pair         S/CPU     
         0   1.1904942      0.0023323615  -0.0016042583   21.852128      20.084244      1.7678839     -0.46409028     0            
      1000   0.93206328     0.0023323615  -0.0033021586   20.965355      19.581241      1.384114      -0.89424792     32223.228    
      2000   1.0371243      0.0023323615   0.00081350542  21.02408       19.48395       1.5401296     -0.95439419     28729.405    
      3000   1.0252763      0.0023323615   0.0040395054   20.88694       19.364404      1.5225353     -1.0813152      23511.989    
      4000   1.0086161      0.0023323615   0.0015249745   20.484927      18.987132      1.4977949     -1.4241238      18990.808    
      5000   1.0695856      0.0023323615  -0.00015434192  20.609381      19.021046      1.5883346     -1.3755432      17837.438    
      6000   1.0786328      0.0023323615  -0.00079055975  20.718241      19.116472      1.6017697     -1.4237003      18119.211    
      7000   1.0133823      0.0023323615   0.0019141424   20.816679      19.311806      1.5048727     -1.1045813      20018.972    
      8000   1.0188947      0.0023323615  -0.0031948337   20.733705      19.220647      1.5130587     -1.3623643      20664.241    
      9000   0.98488712     0.0023323615  -0.0033328732   20.903758      19.441201      1.4625574     -1.1664184      20181.132    
     10000   1.0624367      0.0023323615  -0.0028247625   20.721879      19.14416       1.5777185     -1.3714027      18574.911    
     11000   1.1026595      0.0023323615  -0.0036923702   20.962535      19.325086      1.6374493     -1.3483399      18069.019    
     12000   0.99079481     0.0023323615   0.0026575636   20.703538      19.232207      1.4713303     -1.3355138      17974.651    
     13000   0.98622365     0.0023323615   0.001768766    20.712382      19.24784       1.4645421     -1.3254336      18137.834    
     14000   1.0696268      0.0023323615  -0.0012560431   20.933673      19.345277      1.5883958     -1.2015113      17915.514    
     15000   0.93447796     0.0023323615  -0.00068173074  20.685759      19.29806       1.3876998     -1.2270767      18392.256    
     16000   1.0163015      0.0023323615  -0.0045227071   20.972236      19.463028      1.5092078     -1.1287491      18565.558    
     17000   0.93337376     0.0023323615  -0.0066660116   20.652463      19.266403      1.38606       -1.3602367      18209.619    
     18000   0.96982182     0.0023323615  -0.00053466714  20.665676      19.225491      1.4401854     -1.4088919      18099.805    
     19000   1.0391768      0.0023323615   0.0016013051   20.6708        19.127623      1.5431776     -1.4013708      17865.735    
     20000   0.90719796     0.0023323615  -0.0016790786   20.478122      19.130934      1.347189      -1.4329879      17772.414    
     21000   0.92866628     0.0023323615  -0.0012262898   20.455231      19.076161      1.3790694     -1.4812297      17902.731    
     22000   1.1238321      0.0023323615   0.001460898    20.716829      19.047938      1.6688906     -1.5611331      17763.317    
     23000   1.0605533      0.0023323615  -0.0009848713   20.750321      19.175399      1.5749217     -1.4072679      17830.804    
     24000   1.1503084      0.0023323615  -0.0016658908   20.644397      18.936189      1.708208      -1.564633       17778.007    
     25000   1.1335435      0.0023323615   0.002432533    20.830261      19.146949      1.6833121     -1.4705281      17740.582    
     26000   0.96161172     0.0023323615  -0.0026980813   20.479153      19.05116       1.4279934     -1.4873403      17744.335    
     27000   0.87148061     0.0023323615  -0.0016518919   20.342388      19.04824       1.2941487     -1.5130454      17692.35     
     28000   0.95096919     0.0023323615   0.0020582436   20.35972       18.947531      1.4121892     -1.5040748      17971.431    
     29000   1.1142298      0.0023323615  -0.0025581275   20.732569      19.077938      1.6546312     -1.5199978      17840.69     
     30000   1.0126576      0.0023323615  -0.0004661      20.585399      19.081603      1.5037965     -1.4740019      17596.076    
     31000   1.0116331      0.0023323615  -0.00055849381  20.556394      19.054119      1.5022751     -1.4870875      17614.456    
     32000   0.97456806     0.0023323615   0.0010516672   20.440639      18.993406      1.4472336     -1.4960177      17588.384    
     33000   0.96431362     0.0023323615   0.00040015116  20.240399      18.808393      1.4320057     -1.6165917      17826.262    
     34000   0.92042903     0.0023323615   1.2064941e-05  20.057125      18.690288      1.3668371     -1.7004342      17575.104    
     35000   0.98993169     0.0023323615   0.00041339393  20.534633      19.064585      1.4700486     -1.5131604      17789.309    
     36000   0.97741186     0.0023323615  -0.0041330751   20.619851      19.168395      1.4514566     -1.3750384      17919.672    
     37000   1.0152167      0.0023323615  -0.00048130597  20.480981      18.973384      1.5075968     -1.5681399      17703.145    
     38000   1.016309       0.0023323615  -0.00030117889  20.520743      19.011524      1.5092189     -1.4911189      17612.868    
     39000   0.95055468     0.0023323615  -0.0010180105   20.245218      18.833645      1.4115737     -1.6059189      17594.882    
     40000   0.82818232     0.0023323615   0.0014130886   20.331738      19.101887      1.2298507     -1.3096827      17699.861    
     41000   0.93352554     0.0023323615  -0.0004976859   20.610312      19.224026      1.3862854     -1.3666756      17761.936    
     42000   1.0169167      0.0023323615  -0.0028705251   20.533639      19.023517      1.5101213     -1.4488191      17530.238    
     43000   1.0111801      0.0023323615   0.00017632655  20.830263      19.328661      1.5016025     -1.2604765      17989.819    
     44000   0.98057787     0.0023323615   0.0026270782   20.413198      18.95704       1.4561581     -1.4596996      17975.315    
     45000   1.009058       0.0023323615   0.0022866816   20.555379      19.056928      1.4984511     -1.3966146      17959.156    
     46000   1.1290523      0.0023323615  -0.0024011024   20.863712      19.18707       1.6766427     -1.4727959      17964.173    
     47000   1.0146836      0.0023323615   0.0014732249   20.46934       18.962535      1.5068052     -1.6099522      17749.889    
     48000   0.97740344     0.0023323615  -0.0022385558   20.451895      19.000451      1.4514441     -1.5106992      17884.773    
     49000   0.96310068     0.0023323615  -0.00066886856  20.446152      19.015947      1.4302045     -1.4426192      17775.288    
     50000   1.0570663      0.0023323615  -0.0048222614   20.824626      19.254883      1.5697435     -1.3245397      17961.91     
     51000   0.96570234     0.0023323615   0.0010069266   20.453611      19.019543      1.434068      -1.4351789      17952.154    
     52000   0.97117467     0.0023323615   0.0013201564   20.750484      19.308289      1.4421944     -1.1633383      17666.134    
     53000   0.86659629     0.0023323615  -0.00045093942  20.541112      19.254216      1.2868955     -1.2741694      17836.794    
     54000   0.95163142     0.0023323615   0.00062924493  20.606245      19.193073      1.4131727     -1.3309225      17720.563    
     55000   1.1240728      0.0023323615  -0.00042927863  20.698787      19.029538      1.6692481     -1.4147335      17846.764    
     56000   0.89385954     0.0023323615  -0.0012463991   20.416387      19.089005      1.3273814     -1.3925056      17545.137    
     57000   0.94796294     0.0023323615   0.0001923612   20.478535      19.07081       1.407725      -1.4493622      17814.786    
     58000   1.1069994      0.0023323615   0.0036684524   20.414072      18.770178      1.6438941     -1.6139307      17744.597    
     59000   0.99335825     0.0023323615  -0.0011235147   20.608715      19.133578      1.475137      -1.3702908      17804.099    
     60000   1.0592576      0.0023323615   0.0012126351   20.539702      18.966705      1.5729975     -1.6476562      17674.94     
     61000   0.99033422     0.0023323615   0.00091909243  20.562436      19.09179       1.4706463     -1.4865163      17795.281    
     62000   0.94684212     0.0023323615   0.0010182776   20.598187      19.192127      1.4060605     -1.4086996      17763.314    
     63000   1.005363       0.0023323615   0.0003880021   20.373038      18.880074      1.492964      -1.5973431      17792.642    
     64000   0.93273609     0.0023323615   0.0021844556   20.369593      18.98448       1.3851131     -1.5522839      17701.688    
     65000   0.93920923     0.0023323615  -0.00085874978  20.48832       19.093595      1.3947257     -1.4883336      17747.244    
     66000   0.90023708     0.0023323615   0.00045698058  20.208393      18.87154       1.3368521     -1.6013382      17625.212    
     67000   0.92489482     0.0023323615  -0.0020651576   20.603258      19.229789      1.3734688     -1.2872142      17760.76     
     68000   0.98626077     0.0023323615   0.00033619004  20.704657      19.24006       1.4645972     -1.3038543      18148.09     
     69000   1.0779147      0.0023323615  -0.0016689339   20.886936      19.286232      1.6007034     -1.2166153      17887.263    
     70000   1.0072143      0.0023323615   0.0017075637   20.578503      19.08279       1.4957132     -1.5038163      17921.574    
     71000   1.0046266      0.0023323615  -0.0035770027   20.701451      19.209581      1.4918705     -1.221224       18015.302    
     72000   0.89987669     0.0023323615   0.0063653597   20.432567      19.09625       1.3363169     -1.3868741      17784.808    
     73000   1.1184239      0.0023323615   0.00089518147  20.661849      19.00099       1.6608595     -1.5058721      18020.821    
     74000   1.0644048      0.0023323615   0.0048142462   20.613642      19.033         1.5806411     -1.4320272      17829.925    
     75000   0.96066853     0.0023323615   0.0011802332   20.595929      19.169336      1.4265928     -1.3535411      17842.514    
     76000   0.95709511     0.0023323615   0.0078828252   20.573862      19.152576      1.4212862     -1.3755342      17697.963    
     77000   1.0807147      0.0023323615   0.0052724841   20.702907      19.098046      1.6048613     -1.4994303      17691.359    
     78000   1.0997355      0.0023323615  -0.00039466682  20.593752      18.960645      1.6331072     -1.4683595      17616.297    
     79000   0.92006529     0.0023323615  -0.00055990911  20.681396      19.315099      1.366297      -1.1864463      17690.472    
     80000   0.95035315     0.0023323615   0.0021304462   20.605273      19.193999      1.4112744     -1.3393         17644.732    
     81000   1.1229408      0.0023323615  -0.00045526436  20.599515      18.931948      1.667567      -1.5626885      17657.565    
     82000   0.87225537     0.0023323615  -0.00072377651  20.517489      19.22219       1.2952992     -1.3010079      17673.457    
     83000   1.0078708      0.0023323615  -0.0039320799   20.517926      19.021237      1.4966882     -1.5152237      17780.265    
     84000   0.85704338     0.0023323615   0.00088109269  20.186347      18.913638      1.2727094     -1.6055807      17713.751    
     85000   0.86547362     0.0023323615  -0.0036800907   20.188841      18.903612      1.2852283     -1.6109666      17813.931    
     86000   0.99597167     0.0023323615   0.0015805371   20.41765       18.938632      1.4790179     -1.6154928      17733.761    
     87000   0.94661527     0.0023323615   0.0012926293   20.308931      18.903208      1.4057237     -1.5528172      17727.119    
     88000   1.0627614      0.0023323615  -0.0012875694   20.686233      19.108032      1.5782007     -1.3850112      17832.919    
     89000   0.9316321      0.0023323615   0.0072580875   20.191065      18.807592      1.3834737     -1.6970706      17733.399    
     90000   0.89869815     0.0023323615  -0.0024956452   20.467648      19.133081      1.3345668     -1.5072374      17583.95     
     91000   0.81770066     0.0023323615  -0.0025822677   20.098015      18.88373       1.2142855     -1.6472853      17558.183    
     92000   1.1860416      0.0023323615   0.0032612093   20.897518      19.136247      1.7612718     -1.3097275      17767.922    
     93000   1.0523216      0.0023323615  -0.0010726514   20.486032      18.923335      1.5626976     -1.541013       17910.235    
     94000   0.96293139     0.0023323615  -0.0015195533   21.022927      19.592974      1.4299531     -1.0936484      18115.386    
     95000   0.97163527     0.0023323615  -0.0032485135   20.787332      19.344454      1.4428784     -1.1550366      17874.044    
     96000   0.93325768     0.0023323615   0.0020535556   20.259842      18.873955      1.3858877     -1.5950415      17862.669    
     97000   1.15958        0.0023323615   0.00078112805  20.676893      18.954916      1.7219763     -1.4999423      17703.861    
     98000   0.96978741     0.0023323615   0.0018301554   20.475437      19.035303      1.4401343     -1.4585259      17762.66     
     99000   0.93298575     0.0023323615   0.00082685146  20.764142      19.378658      1.3854838     -1.2437035      17641.308    
    100000   1.0139433      0.0023323615   0.0042492212   20.456055      18.950349      1.5057058     -1.4777646      17696.255    
    101000   0.92419028     0.0023323615  -0.0014201536   20.401133      19.02871       1.3724226     -1.4925182      17711.972    
    102000   0.88243933     0.0023323615   0.0015374373   20.271316      18.960894      1.3104224     -1.5098776      17653.504    
    103000   0.92096155     0.0023323615  -0.00067388578  20.638217      19.270589      1.3676279     -1.3887503      17643.647    
    104000   0.97056096     0.0023323615   0.001463597    20.309192      18.867909      1.441283      -1.6294476      17855.463    
    105000   0.99585585     0.0023323615   0.00096999747  20.472712      18.993866      1.4788459     -1.6081025      17731.477    
    106000   0.98631677     0.0023323615  -0.0032811766   20.590114      19.125434      1.4646804     -1.4201963      17768.149    
    107000   1.136827       0.0023323615   0.0010173893   20.832236      19.144048      1.6881881     -1.4099105      17879.324    
    108000   1.1462303      0.0023323615   8.7095227e-06  20.672952      18.9708        1.7021521     -1.5050572      17927.49     
    109000   0.96562733     0.0023323615   0.001434546    20.649654      19.215697      1.4339566     -1.3018084      17992.329    
    110000   1.0559836      0.0023323615   0.0046605658   20.812942      19.244807      1.5681356     -1.2414278      17994.441    
    111000   0.90554447     0.0023323615   0.0006199343   20.352846      19.008112      1.3447335     -1.4427272      17838.423    
    112000   1.1235974      0.0023323615   0.00084629176  20.793448      19.124905      1.6685421     -1.2934861      17621.733    
    113000   0.87648839     0.0023323615  -0.00043461591  20.332176      19.030591      1.3015853     -1.4929942      17904.796    
    114000   0.93806674     0.0023323615   0.00091715514  20.414142      19.021113      1.3930291     -1.3952212      17788.298    
    115000   1.1096704      0.0023323615  -0.003336721    20.682225      19.034364      1.6478606     -1.5481885      17867.757    
    116000   0.87954991     0.0023323615  -0.00213299     20.316044      19.009912      1.3061316     -1.5407199      17680.375    
    117000   1.0626379      0.0023323615   0.0001016476   20.597617      19.0196        1.5780173     -1.3909267      17788.003    
    118000   1.0474535      0.0023323615  -0.00097782432  20.414121      18.858652      1.5554684     -1.6921221      17727.931    
    119000   1.0733866      0.0023323615  -0.0024402194   20.549114      18.955134      1.5939791     -1.6497134      17673.983    
    120000   0.95133269     0.0023323615  -0.00077047085  20.297787      18.885058      1.412729      -1.7196669      17849.425    
    121000   0.85313034     0.0023323615  -0.0014064737   20.342433      19.075534      1.2668986     -1.4565721      17784.415    
    122000   0.94855267     0.0023323615  -0.0022969765   20.516769      19.108168      1.4086007     -1.4647167      18042.787    
    123000   1.1269559      0.0023323615   0.0022907857   20.610552      18.937022      1.6735295     -1.6655608      17861.633    
    124000   1.04323        0.0023323615   0.002840735    20.734168      19.184972      1.5491966     -1.4105275      17849.792    
    125000   1.0702744      0.0023323615   0.00055329109  20.891681      19.302324      1.5893575     -1.3410519      17898.653    
    126000   0.98400645     0.0023323615  -0.0027139433   20.843499      19.382249      1.4612496     -1.2235838      18212.829    
    127000   1.093387       0.0023323615   0.0025411685   20.939306      19.315626      1.6236797     -1.2471546      18338.234    
    128000   1.0335644      0.0023323615   0.0013918523   20.80145       19.266607      1.5348432     -1.1504654      18746.923    
    129000   1.0569775      0.0023323615  -0.0022621114   20.723453      19.153841      1.5696115     -1.2992275      18585.602    
    130000   0.92162997     0.0023323615   0.001221703    20.578117      19.209496      1.3686205     -1.3082674      18412.637    
    131000   1.0295289      0.0023323615  -0.0055672285   20.25557       18.726719      1.5288503     -1.6196656      17933.578    
    132000   1.0100848      0.0023323615  -0.0027538776   20.665548      19.165573      1.4999759     -1.3837087      17917.128    
    133000   1.0521106      0.0023323615   0.0002494325   20.661935      19.09955       1.5623843     -1.4095412      18050.713    
    134000   0.94056295     0.0023323615   0.00047127043  20.131808      18.735072      1.396736      -1.6536433      17810.898    
    135000   0.97658112     0.0023323615  -0.0059502809   20.752382      19.302159      1.450223      -1.2755795      17919.196    
    136000   0.98941928     0.0023323615  -0.00095440612  20.482393      19.013105      1.4692876     -1.6319182      17859.549    
    137000   0.88874272     0.0023323615  -0.0040498729   20.320191      19.000408      1.3197829     -1.4893944      17989.618    
    138000   0.91086519     0.0023323615  -0.002101212    20.374605      19.02197       1.3526348     -1.637582       17841.289    
    139000   0.96097849     0.0023323615   0.00048271684  20.279807      18.852754      1.4270531     -1.5611697      17752.831    
    140000   0.92974986     0.0023323615  -0.0015758647   20.48224       19.101561      1.3806785     -1.608996       17714.61     
    141000   1.1267926      0.0023323615   0.0027069928   20.698063      19.024776      1.673287      -1.5505567      17713.016    
    142000   1.0487903      0.0023323615  -0.00049089546  20.902046      19.344593      1.5574537     -1.248319       17683.586    
    143000   1.0389126      0.0023323615  -0.00046393492  20.552459      19.009674      1.5427853     -1.5752408      17928.92     
    144000   1.0602888      0.0023323615   0.00063430788  20.922312      19.347783      1.5745289     -1.2144791      17959.476    
    145000   0.97089039     0.0023323615   0.00057367945  20.615003      19.17323       1.4417722     -1.4405293      17695.565    
    146000   0.87910634     0.0023323615  -0.0017050122   20.34863       19.043157      1.3054729     -1.5125219      17678.947    
    147000   0.89911163     0.0023323615   0.00050526287  20.438951      19.10377       1.3351808     -1.4451665      17678.537    
    148000   0.8995607      0.0023323615   0.002928447    20.299679      18.963831      1.3358476     -1.5364269      17765.104    
    149000   1.0609148      0.0023323615   0.0032393522   20.584164      19.008706      1.5754584     -1.5530792      17701.641    
    150000   1.0962948      0.0023323615   0.00067985747  20.769602      19.141604      1.6279978     -1.3294916      17851.998    
    151000   0.96497866     0.0023323615  -0.0035616697   21.016582      19.583589      1.4329933     -1.049015       17794.146    
    152000   1.0270523      0.0023323615   0.00067623495  20.696582      19.17141       1.5251726     -1.2647536      18088.414    
    153000   1.1350983      0.0023323615  -0.00055060031  20.930675      19.245054      1.685621      -1.3002741      17882.838    
    154000   1.139172       0.0023323615  -0.00062578378  20.805712      19.114042      1.6916704     -1.3970089      17900.162    
    155000   1.0275868      0.0023323615   0.0043644129   20.965642      19.439676      1.5259663     -1.1566912      17944.046    
    156000   1.0108995      0.0023323615   0.00067766829  20.422995      18.921809      1.5011858     -1.5775527      17616.766    
    157000   0.96845901     0.0023323615   0.0018580305   20.745614      19.307452      1.4381616     -1.2052098      17625.769    
    158000   0.92343887     0.0023323615  -0.0051740859   20.503073      19.131766      1.3713067     -1.3534611      17762.353    
    159000   0.97649597     0.0023323615  -2.194822e-05   20.433812      18.983716      1.4500965     -1.4849032      17704.479    
    160000   1.0284876      0.0023323615   0.0038971567   20.383362      18.856058      1.5273041     -1.6233106      17508.971    
    161000   0.91179171     0.0023323615  -0.00071626135  20.34744       18.993429      1.3540107     -1.4597457      17719.129    
    162000   1.0760215      0.0023323615   0.00010603406  20.738857      19.140965      1.5978919     -1.4844603      17593.123    
    163000   1.2758415      0.0023323615   0.0019650869   20.4794        18.584775      1.8946247     -1.7579661      17671.971    
    164000   1.0299942      0.0023323615  -0.0037672225   20.385461      18.85592       1.5295414     -1.6474127      17574.305    
    165000   0.89110624     0.0023323615   0.0045674935   20.309978      18.986685      1.3232928     -1.6370832      17533.847    
    166000   0.97196823     0.0023323615  -0.0010818716   20.34079       18.897417      1.4433728     -1.6592546      17782.968    
    167000   0.951556       0.0023323615  -0.0048513819   20.304357      18.891296      1.4130607     -1.5113143      17979.255    
    168000   0.81513432     0.0023323615   0.0031425723   20.50146       19.290985      1.2104745     -1.1472277      18077.416    
    169000   0.95615557     0.0023323615  -0.00050647026  20.475612      19.05572       1.419891      -1.4659483      17898.869    
    170000   0.96437895     0.0023323615   9.5804273e-05  20.561274      19.129171      1.4321027     -1.3417975      17729.377    
    171000   0.97907935     0.0023323615  -0.0017076313   20.606021      19.152089      1.4539328     -1.5927739      17895.493    
    172000   1.0987098      0.0023323615  -0.0017993109   20.363526      18.731942      1.6315841     -1.7716976      17996.968    
    173000   0.9262354      0.0023323615   0.0015900462   20.289633      18.914173      1.3754596     -1.6999069      17916.086    
    174000   0.86334319     0.0023323615   8.8905799e-05  20.27423       18.992165      1.2820646     -1.5112759      18092.971    
    175000   0.83213845     0.0023323615   0.0011545577   20.468352      19.232626      1.2357256     -1.4729003      18120.816    
    176000   0.98108542     0.0023323615  -0.0024832741   20.439492      18.98258       1.4569119     -1.587031       18156.284    
    177000   1.0175097      0.0023323615  -0.0030612713   20.983301      19.472299      1.5110019     -1.2155621      18135.362    
    178000   0.90251206     0.0023323615   0.0017743342   20.69056       19.35033       1.3402304     -1.2201772      18247.831    
    179000   0.93292481     0.0023323615   0.0015270531   20.492201      19.106808      1.3853933     -1.3561724      17960.391    
    180000   1.114226       0.0023323615   0.0023285176   21.045287      19.390661      1.6546256     -1.2162014      17679.649    
    181000   0.98546029     0.0023323615  -0.0042455967   20.712404      19.248996      1.4634085     -1.4071544      17692.799    
    182000   1.0420488      0.0023323615   0.001885003    20.534287      18.986845      1.5474425     -1.5128235      17626.781    
    183000   0.94330802     0.0023323615   0.0027691548   20.614782      19.21397       1.4008124     -1.3352203      17784.672    
    184000   1.0890785      0.0023323615  -0.0036275992   20.55827       18.940988      1.6172816     -1.4159629      17875.449    
    185000   0.87303059     0.0023323615   0.0040110123   20.282969      18.986518      1.2964504     -1.6113433      17473.014    
    186000   1.1279464      0.0023323615  -0.0015692614   21.05697       19.381969      1.6750004     -1.0915405      17726.983    
    187000   1.1904755      0.0023323615   0.0016069015   20.667553      18.899696      1.7678561     -1.5674941      17738.167    
    188000   1.0847283      0.0023323615  -0.0017559851   20.749002      19.138181      1.6108215     -1.4452474      17518.608    
    189000   0.9172974      0.0023323615  -0.0039517251   20.20869       18.846503      1.3621866     -1.581008       17608.788    
    190000   0.85374033     0.0023323615   0.0031264152   20.469692      19.201888      1.2678044     -1.3798806      17536.752    
    191000   0.99474754     0.0023323615  -0.00045171752  20.650684      19.173484      1.4772001     -1.3262013      17793.663    
    192000   0.89191219     0.0023323615  -0.0013468601   20.24819       18.9237        1.3244896     -1.5153572      17761.206    
    193000   1.1333906      0.0023323615  -0.0025007506   20.530618      18.847533      1.683085      -1.6594434      17743.496    
    194000   0.94515792     0.0023323615  -0.0056452925   20.147949      18.74439       1.4035595     -1.7451972      17485.754    
    195000   1.0756381      0.0023323615   0.00017205672  20.597985      19.000663      1.5973225     -1.5098604      17485.322    
    196000   1.0539359      0.0023323615  -0.00019643807  20.820886      19.255791      1.5650948     -1.2989913      17466.517    
    197000   0.93989358     0.0023323615  -0.00092991678  20.330853      18.935111      1.395742      -1.5605265      17642.88     
    198000   0.94385578     0.0023323615   0.003182274    20.531839      19.130213      1.4016258     -1.4653688      17491.711    
    199000   0.9287456      0.0023323615   0.0046595401   20.418275      19.039088      1.3791872     -1.4728727      17574.005    
    200000   1.0420405      0.0023323615  -0.0014791573   20.738303      19.190872      1.5474302     -1.330218       17618.613    
    201000   0.97687549     0.0023323615   4.5083345e-05  20.598987      19.148327      1.4506601     -1.3016563      17699.867    
    202000   0.90032734     0.0023323615  -0.001316506    20.238964      18.901978      1.3369861     -1.6219059      17780.886    
    203000   0.92467186     0.0023323615   0.00073589591  20.450669      19.077531      1.3731377     -1.4183009      17803.331    
    204000   1.0073235      0.0023323615   0.0025848492   20.722418      19.226543      1.4958755     -1.3005282      18008.3      
    205000   0.86982584     0.0023323615   0.0047369886   20.518465      19.226774      1.2916914     -1.2006532      18004.451    
    206000   1.0919809      0.0023323615   0.00045251907  20.847431      19.22584       1.6215916     -1.1651143      18174.393    
    207000   1.1210366      0.0023323615   0.00030065269  20.755863      19.091123      1.6647394     -1.3278361      17980.81     
    208000   1.0274936      0.0023323615   0.0014440063   20.709537      19.183709      1.525828      -1.2979698      17960.248    
    209000   1.0752415      0.0023323615  -0.0022222378   20.558762      18.962028      1.5967336     -1.511987       18117.053    
    210000   0.99684906     0.0023323615  -0.0014132945   20.420852      18.940531      1.4803208     -1.5723954      17795.687    
    211000   1.0277593      0.0023323615   0.0010022655   20.703636      19.177414      1.5262226     -1.3289081      17721.592    
    212000   0.88919502     0.0023323615   0.0044491537   20.521494      19.20104       1.3204546     -1.3087896      17664.84     
    213000   1.020689       0.0023323615  -0.0026381484   20.477997      18.962274      1.5157231     -1.5140399      17801.086    
    214000   1.0940446      0.0023323615  -0.0020962647   20.680476      19.055819      1.6246562     -1.44985        17676.743    
    215000   0.98894675     0.0023323615  -0.0023923405   20.773535      19.304949      1.4685859     -1.2611375      17610.575    
    216000   1.04093        0.0023323615  -0.0032677603   20.907641      19.36186       1.545781      -1.197971       18020.366    
    217000   1.0859394      0.0023323615   0.0031651871   20.573867      18.961247      1.61262       -1.6382444      18120.286    
    218000   1.0869823      0.0023323615   0.0034394879   20.788872      19.174704      1.6141687     -1.4923666      17733.5      
    219000   1.0466004      0.0023323615   4.8541571e-05  20.415827      18.861625      1.5542016     -1.5582388      17545.519    
    220000   1.0223631      0.0023323615   0.0046933211   20.57645       19.058241      1.5182093     -1.448677       17776.795    
    221000   1.006361       0.0023323615  -0.0030351704   20.485766      18.99132       1.494446      -1.5603745      17612.563    
    222000   1.1374612      0.0023323615  -0.0019541899   20.695199      19.006069      1.6891299     -1.6044747      17568.904    
    223000   1.07143        0.0023323615  -0.0027493975   20.925276      19.334202      1.5910736     -1.1848528      17939.176    
    224000   0.99068167     0.0023323615   0.0041082734   20.754206      19.283043      1.4711623     -1.2916692      17982.307    
    225000   1.0189906      0.0023323615  -0.0006704698   20.407818      18.894617      1.513201      -1.6421407      17791.532    
    226000   1.0974145      0.0023323615  -0.00057237099  20.744267      19.114607      1.6296606     -1.3711643      17636.227    
    227000   1.0154759      0.0023323615   0.0042839285   20.820952      19.31297       1.5079816     -1.1880238      17718.157    
    228000   0.89687537     0.0023323615  -0.0026815725   20.613459      19.281599      1.3318599     -1.2214736      17871.717    
    229000   0.98452052     0.0023323615  -0.00016484778  20.543067      19.081054      1.462013      -1.4369824      17747.048    
    230000   1.0325166      0.0023323615   0.0022399825   20.598939      19.065652      1.5332871     -1.4026699      17577.187    
    231000   1.0839502      0.0023323615   0.0009993089   20.742812      19.133146      1.609666      -1.3638576      17596.759    
    232000   0.85053251     0.0023323615   0.00018017704  20.289771      19.02673       1.2630408     -1.5522897      17582.952    
    233000   1.077949       0.0023323615  -0.0016210583   20.694804      19.09405       1.6007543     -1.4158639      17603.999    
    234000   1.088478       0.0023323615  -0.0041320074   20.724782      19.108393      1.6163898     -1.3536004      17651.288    
    235000   1.0293712      0.0023323615   0.0015253587   20.699088      19.170472      1.5286163     -1.4752992      17628.35     
    236000   1.1583384      0.0023323615   0.0015780295   20.725225      19.005092      1.7201326     -1.4617035      17425.941    
    237000   1.0968966      0.0023323615  -9.869773e-05   20.633126      19.004234      1.6288914     -1.4139725      17502.007    
    238000   0.98576838     0.0023323615  -0.0027900937   20.360554      18.896688      1.463866      -1.6032751      17416.089    
    239000   1.109968       0.0023323615   0.0011643273   20.666066      19.017763      1.6483025     -1.5585672      17421.65     
    240000   1.036104       0.0023323615  -0.0065156516   20.594351      19.055736      1.5386145     -1.5747945      17652.421    
    241000   1.1148577      0.0023323615  -0.0010183062   20.776343      19.120779      1.6555637     -1.5263178      17407.46     
    242000   0.92578452     0.0023323615  -0.0026656519   20.448019      19.073229      1.37479       -1.4866578      17607.766    
    243000   0.81790729     0.0023323615  -0.0022952251   20.195628      18.981036      1.2145923     -1.5682478      17575.404    
    244000   1.0226291      0.0023323615  -0.0054394716   20.384002      18.865397      1.5186041     -1.7321898      17461.921    
    245000   0.96352128     0.0023323615   0.00065283105  20.777645      19.346816      1.4308291     -1.3194379      17442.769    
    246000   1.0353603      0.0023323615  -0.00084179146  20.546431      19.008921      1.53751       -1.4070187      17362.615    
    247000   1.1223952      0.0023323615  -0.0038863189   20.878564      19.211807      1.6667568     -1.2834945      17622.209    
    248000   0.95619662     0.0023323615   0.0028187321   20.492594      19.072642      1.419952      -1.3530335      17658.921    
    249000   1.0892839      0.0023323615   0.0028714901   20.827763      19.210177      1.6175866     -1.3279054      17781.355    
    250000   1.0552384      0.0023323615   0.001461811    20.78242       19.215391      1.567029      -1.4401727      17629.274    
    251000   1.0283818      0.0023323615   0.00080388653  20.374272      18.847125      1.5271469     -1.6857914      17668.323    
    252000   0.96248814     0.0023323615  -0.0062724356   20.416268      18.986973      1.4292949     -1.5139976      17668.977    
    253000   1.0171359      0.0023323615   0.00067357988  20.337632      18.827185      1.5104468     -1.645935       17487.387    
    254000   0.86894896     0.0023323615  -0.0031849259   20.280829      18.99044       1.2903892     -1.5882179      17392.846    
    255000   1.0330758      0.0023323615  -0.0036784097   20.517246      18.983128      1.5341176     -1.5770799      17398.949    
    256000   1.102942       0.0023323615   0.0012579369   20.712368      19.074499      1.6378688     -1.462231       17444.388    
    257000   0.99654429     0.0023323615  -0.00062322178  20.355986      18.876118      1.4798683     -1.6731137      17579.453    
    258000   1.0505338      0.0023323615  -0.0016023487   20.502791      18.942749      1.5600426     -1.5091293      17749.15     
    259000   0.84884162     0.0023323615  -0.001087441    20.470983      19.210453      1.2605298     -1.2588421      18058.639    
    260000   1.1199567      0.0023323615  -0.0020289717   20.478522      18.815387      1.6631357     -1.637952       17772.92     
    261000   0.89783525     0.0023323615  -0.0043153816   20.435343      19.102058      1.3332853     -1.3076857      17657.574    
    262000   1.0785912      0.0023323615   0.00052644518  20.671954      19.070247      1.6017079     -1.4205985      17761.572    
    263000   1.0245476      0.0023323615  -0.0017995576   20.432236      18.910782      1.5214532     -1.558046       17494.026    
    264000   1.0430476      0.0023323615   0.0011286574   20.816133      19.267207      1.5489257     -1.1882395      17790.394    
    265000   1.1537652      0.0023323615   0.003322252    20.568164      18.854823      1.7133413     -1.6255705      17803.42     
    266000   0.97644297     0.0023323615  -0.0027993436   20.58871       19.138692      1.4500178     -1.3944411      17711.491    
    267000   1.0801391      0.0023323615   0.0022908799   20.486134      18.882127      1.6040065     -1.5906434      17314.848    
    268000   1.119846       0.0023323615  -4.3732005e-05  20.762344      19.099373      1.6629713     -1.5836181      17425.074    
    269000   0.81982963     0.0023323615  -0.00085720103  20.104143      18.886696      1.217447      -1.6871132      17427.401    
    270000   1.059035       0.0023323615  -0.0042441835   20.657752      19.085085      1.5726669     -1.3885136      17565.417    
    271000   0.94074186     0.0023323615   0.005510515    20.195123      18.798122      1.3970017     -1.701072       17671.42     
    272000   0.96236618     0.0023323615   0.0055612905   20.475957      19.046843      1.4291138     -1.3545319      17763.001    
    273000   1.0782722      0.0023323615   0.0049890247   20.606748      19.005514      1.6012343     -1.663001       17692.071    
    274000   1.067041       0.0023323615  -0.0025472912   20.819543      19.234987      1.5845559     -1.3413518      17781.326    
    275000   0.87950453     0.0023323615   5.7724504e-05  20.340372      19.034308      1.3060642     -1.5173998      17609.055    
    276000   1.0717817      0.0023323615   0.00313774     20.556429      18.964833      1.5915959     -1.54997        17599.517    
    277000   1.0296436      0.0023323615  -0.00082020949  20.811368      19.282347      1.5290208     -1.3322332      17756.381    
    278000   0.97290176     0.0023323615  -0.0028133266   20.673494      19.228735      1.4447591     -1.3170718      17752.538    
    279000   1.0807754      0.0023323615  -0.00061007064  20.603034      18.998083      1.6049515     -1.4346294      17808.972    
    280000   1.0214197      0.0023323615  -0.0047608467   20.40498       18.888172      1.5168082     -1.756539       17726.581    
    281000   1.0188866      0.0023323615  -0.0026961598   20.224074      18.711027      1.5130466     -1.8041166      17860.128    
    282000   0.99082925     0.0023323615  -0.0047272719   20.553181      19.0818        1.4713814     -1.4434248      18019.299    
    283000   1.0908477      0.0023323615   0.0010885211   20.455933      18.836024      1.6199088     -1.6181269      17868.016    
    284000   1.0849378      0.0023323615   0.0026547795   20.828983      19.21785       1.6111327     -1.3958786      17677.767    
    285000   0.81373265     0.0023323615   0.0032224677   20.084841      18.876448      1.208393      -1.6045569      17659.83     
    286000   0.93985336     0.0023323615   0.0039828889   20.337432      18.94175       1.3956822     -1.5078565      17599.25     
    287000   0.99018707     0.0023323615  -0.0027732871   20.761535      19.291107      1.4704278     -1.3506381      17842.731    
    288000   1.0539472      0.0023323615  -0.0013085817   20.654888      19.089776      1.5651115     -1.4390285      17612.737    
    289000   1.1458973      0.0023323615   0.0022141042   20.531822      18.830164      1.7016576     -1.5412469      17607.232    
    290000   0.92436563     0.0023323615  -0.0030841779   20.433219      19.060536      1.372683      -1.4881322      17511.886    
    291000   1.0058091      0.0023323615  -0.0006197291   20.418352      18.924726      1.4936265     -1.6053322      17546.266    
    292000   1.0761974      0.0023323615   0.0049271379   20.630969      19.032816      1.5981531     -1.5135123      17464.698    
    293000   0.8441464      0.0023323615  -0.0010864437   20.093035      18.839478      1.2535574     -1.6304914      17396.056    
    294000   0.96055556     0.0023323615   0.0036307144   20.451499      19.025074      1.426425      -1.4589628      17458.29     
    295000   0.96628495     0.0023323615   0.0022759632   20.561997      19.127064      1.4349331     -1.4635022      17715.521    
    296000   1.1082442      0.0023323615  -0.00022763816  20.577148      18.931405      1.6457426     -1.5849641      17697.172    
    297000   1.1105018      0.0023323615  -0.0016434067   20.751817      19.102721      1.6490952     -1.3856316      17502.087    
    298000   1.0304538      0.0023323615   0.0024437824   20.436067      18.905843      1.5302239     -1.6636789      17531.907    
    299000   0.97588379     0.0023323615  -0.0020111146   20.786195      19.337008      1.4491874     -1.2416905      17519.693    
    300000   0.99528933     0.0023323615   0.0023811024   20.40644       18.928435      1.4780047     -1.4767476      17638.683    
    301000   1.0140044      0.0023323615  -0.0034971919   20.449865      18.944069      1.5057966     -1.5500133      17260.628    
    302000   0.94170835     0.0023323615   3.4487932e-05  19.955111      18.556674      1.3984369     -1.9505878      17382.774    
    303000   0.96134225     0.0023323615  -0.0044709661   20.274197      18.846604      1.4275932     -1.6487758      17650.689    
    304000   1.1030047      0.0023323615   5.7749409e-05  20.697407      19.059445      1.6379619     -1.4124651      17523.726    
    305000   1.0264876      0.0023323615  -0.0026148052   20.794825      19.270491      1.524334      -1.2961176      17783.173    
    306000   1.1271463      0.0023323615   0.0024878186   20.566152      18.89234       1.6738123     -1.5679501      17722.077    
    307000   1.0183593      0.0023323615  -0.0031146253   20.287971      18.775707      1.5122635     -1.7080561      17547.882    
    308000   1.0984704      0.0023323615  -0.0045667911   20.712729      19.0815        1.6312286     -1.4592404      17665.649    
    309000   1.0135459      0.0023323615   0.0036438676   20.484452      18.979336      1.5051157     -1.6377113      17759.525    
    310000   1.1149675      0.0023323615   0.00018143522  20.698254      19.042527      1.6557267     -1.4041651      17695.879    
    311000   1.0574796      0.0023323615   0.0031424995   20.717254      19.146896      1.5703573     -1.4976193      17689.077    
    312000   0.85333907     0.0023323615  -0.0029138919   20.206262      18.939053      1.2672085     -1.5730826      17669.308    
    313000   0.96293709     0.0023323615  -0.0015259648   20.367204      18.937242      1.4299616     -1.5477881      17791.402    
    314000   0.90438837     0.0023323615  -0.00083559571  20.679616      19.336599      1.3430167     -1.1306558      17864.475    
    315000   1.1173466      0.0023323615  -0.00083671077  20.670097      19.010837      1.6592597     -1.5349012      17812.116    
    316000   1.0215469      0.0023323615  -0.001405895    20.613089      19.096092      1.5169972     -1.4052686      17896.824    
    317000   1.0766001      0.0023323615   0.0032127897   20.810256      19.211504      1.5987512     -1.334885       17854.253    
    318000   1.0167089      0.0023323615   0.0009992819   20.63733       19.127517      1.5098128     -1.3212939      17698.609    
    319000   0.9577324      0.0023323615  -0.00025056692  20.400974      18.978742      1.4222326     -1.3644351      17980.191    
    320000   0.9385068      0.0023323615  -0.0044364742   20.606986      19.213304      1.3936826     -1.3471539      17791.926    
    321000   0.87811667     0.0023323615  -0.0015075757   20.401736      19.097733      1.3040033     -1.372127       17836.469    
    322000   1.0161104      0.0023323615   0.00027058945  20.719554      19.21063       1.508924      -1.2142339      17874.389    
    323000   1.134195       0.0023323615  -0.0057710761   20.974114      19.289835      1.6842796     -1.2874276      17981.053    
    324000   0.88642318     0.0023323615   0.00031850549  20.427637      19.111298      1.3163384     -1.4838456      17868.796    
    325000   0.96352668     0.0023323615   0.0028465424   20.439063      19.008226      1.4308371     -1.5909405      17631.545    
    326000   0.92781091     0.0023323615  -0.0028763486   20.450631      19.072832      1.3777992     -1.3329017      17772.49     
    327000   0.99876954     0.0023323615   0.0012449946   20.673491      19.190319      1.4831728     -1.2945978      17723.071    
    328000   1.0645397      0.0023323615  -0.0020783168   20.61204       19.031199      1.5808415     -1.4451734      17735.116    
    329000   1.0515253      0.0023323615  -0.0011614226   20.670329      19.108814      1.5615151     -1.4966408      17922.807    
    330000   1.0494729      0.0023323615  -0.00076116656  20.82596       19.267492      1.5584672     -1.3589117      17802.267    
    331000   0.94605995     0.0023323615   0.00082759243  20.537655      19.132756      1.404899      -1.341651       17504.865    
    332000   0.9535292      0.0023323615  -0.0033310687   20.442723      19.026732      1.4159909     -1.5800018      17581.574    
    333000   0.86946552     0.0023323615   0.00044402046  20.495193      19.204037      1.2911563     -1.3404034      17742.029    
    334000   1.0619129      0.0023323615   0.0011337787   20.627694      19.050753      1.5769407     -1.4897409      17955.952    
    335000   0.97721493     0.0023323615   0.0049319942   20.281249      18.830085      1.4511642     -1.6555641      17678.118    
    336000   1.0168514      0.0023323615  -0.00091221588  20.689176      19.179152      1.5100243     -1.2823548      17683.379    
    337000   0.96825514     0.0023323615  -0.000923027    20.628818      19.190959      1.4378589     -1.3667993      17832.922    
    338000   0.93753989     0.0023323615   0.00067649668  20.434906      19.042659      1.3922467     -1.4192794      17861.908    
    339000   0.95068973     0.0023323615   0.0032281909   20.681828      19.270054      1.4117742     -1.2815073      18128.636    
    340000   0.96087329     0.0023323615  -0.0017439382   20.856775      19.429878      1.4268968     -1.2757176      17902.811    
    341000   1.0975266      0.0023323615  -0.0023965209   20.611277      18.98145       1.629827      -1.4798458      17913.353    
    342000   1.1437988      0.0023323615  -0.0029685265   20.794176      19.095635      1.6985412     -1.4187146      17804.893    
    343000   0.95284167     0.0023323615  -0.00032761243  20.806376      19.391406      1.4149699     -1.2282078      17965.04     
    344000   1.0087062      0.0023323615  -0.0028135668   20.751968      19.25404       1.4979286     -1.2838323      18703.336    
    345000   0.99588611     0.0023323615   0.0030062468   20.795875      19.316984      1.4788909     -1.2459918      18890.605    
    346000   1.0057962      0.0023323615  -0.0019569465   20.409208      18.915601      1.4936073     -1.5511646      18333.437    
    347000   0.99680004     0.0023323615  -0.0042094504   20.916257      19.436009      1.4802481     -1.19548        18001.227    
    348000   0.95192813     0.0023323615   0.00030851912  20.413923      19.00031       1.4136133     -1.5448158      18045.048    
    349000   0.94722595     0.0023323615  -0.00073869395  20.675554      19.268923      1.4066305     -1.1106908      17829.663    
    350000   0.97309677     0.0023323615   0.0006530305   20.439529      18.99448       1.4450487     -1.4524687      17826.539    
    351000   0.9200071      0.0023323615   0.0010225149   20.30098       18.934769      1.3662105     -1.6037104      17890.925    
    352000   1.0751815      0.0023323615  -0.00019034015  20.568712      18.972068      1.5966446     -1.4546274      17852.506    
    353000   0.98785534     0.0023323615   0.00016991952  20.832342      19.365377      1.4669652     -1.2168811      17733.61     
    354000   0.99637543     0.0023323615   0.0015368675   20.712491      19.232874      1.4796175     -1.257962       17973.852    
    355000   0.94765434     0.0023323615   0.0032541827   20.621489      19.214222      1.4072667     -1.3541933      18160.766    
    356000   0.94636188     0.0023323615  -0.00091723404  20.472486      19.067139      1.4053474     -1.4734241      17996.738    
    357000   1.0928743      0.0023323615   0.00090188726  20.610544      18.987626      1.6229183     -1.4690933      17772.911    
    358000   0.96133399     0.0023323615  -0.0015156771   20.491751      19.06417       1.427581      -1.3656567      17712.84     
    359000   1.1001922      0.0023323615  -0.00078816935  21.074126      19.440341      1.6337854     -1.2015674      17810.784    
    360000   1.0540348      0.0023323615  -0.0026642794   20.755056      19.189814      1.5652417     -1.3721553      17860.163    
    361000   1.1328637      0.0023323615   0.0025080121   20.683517      19.001215      1.6823026     -1.4941063      17689.826    
    362000   0.96081291     0.0023323615   1.9825679e-05  20.550785      19.123977      1.4268072     -1.3795964      17753.715    
    363000   0.82657187     0.0023323615  -0.0011116807   20.227308      18.999849      1.2274592     -1.4114156      17754.158    
    364000   1.0764758      0.0023323615  -0.00053433456  20.872425      19.273859      1.5985666     -1.3715565      17554.172    
    365000   1.1254651      0.0023323615   0.0024302705   20.628878      18.957562      1.6713157     -1.6479585      17528.625    
    366000   1.0197156      0.0023323615   0.00047239813  20.827035      19.312757      1.5142776     -1.2591024      17635.118    
    367000   1.1066249      0.0023323615   0.0013030808   20.677426      19.034088      1.6433379     -1.4603651      17425.397    
    368000   0.95363906     0.0023323615   0.00054885108  20.399334      18.98318       1.416154      -1.5742287      17310.311    
    369000   0.9890004      0.0023323615  -0.00079462867  20.444418      18.975752      1.4686656     -1.4719355      17664.724    
    370000   0.96079215     0.0023323615  -0.00089541487  20.55514       19.128364      1.4267763     -1.4324678      17513.016    
    371000   0.95136695     0.0023323615  -0.00024410246  20.657676      19.244896      1.4127799     -1.3719995      17467.996    
    372000   0.99464099     0.0023323615  -0.0047694506   20.596833      19.119791      1.4770419     -1.5519819      17707.083    
    373000   0.9491572      0.0023323615  -0.00011911138  20.477717      19.068219      1.4094984     -1.4170127      17713.88     
    374000   0.86744706     0.0023323615   0.002855055    20.050448      18.762289      1.2881589     -1.6898751      17596.588    
    375000   0.97966722     0.0023323615   0.0026279704   20.504361      19.049556      1.4548058     -1.5272214      17766.372    
    376000   1.0342487      0.0023323615  -0.001681127    20.492068      18.956209      1.5358593     -1.5593827      17550.817    
    377000   1.0295978      0.0023323615  -0.0023157482   20.62215       19.093197      1.5289527     -1.3812374      17464.267    
    378000   1.0151193      0.0023323615   0.0022791836   20.549057      19.041604      1.5074521     -1.4872816      17625.813    
    379000   0.88227433     0.0023323615  -0.0016315124   20.491604      19.181426      1.3101774     -1.3131843      17959.266    
    380000   1.0266426      0.0023323615   0.00019263457  20.604155      19.079591      1.5245642     -1.4651116      17856.607    
    381000   0.89742792     0.0023323615   0.0017964873   20.523093      19.190412      1.3326805     -1.4202599      17571.236    
    382000   1.1031294      0.0023323615  -0.0029153389   20.910899      19.272752      1.6381472     -1.2704376      17890.37     
    383000   0.92168236     0.0023323615   0.0024465867   20.7436        19.374902      1.3686983     -1.1744048      17867.13     
    384000   0.96633137     0.0023323615  -0.0076173051   20.676095      19.241093      1.4350021     -1.3678295      17958.478    
    385000   0.97647537     0.0023323615   0.0012804317   20.861713      19.411647      1.4500659     -1.2676609      17877.783    
    386000   1.0299564      0.0023323615   0.0040281775   20.626196      19.096711      1.5294852     -1.354457       17745.319    
    387000   0.86242414     0.0023323615   0.0021725598   20.272745      18.992045      1.2806999     -1.4676312      17748.15     
    388000   1.0347894      0.0023323615   0.0005656487   20.826814      19.290151      1.5366623     -1.322957       17834.907    
    389000   1.0146126      0.0023323615  -0.00095604572  20.497401      18.990701      1.5066998     -1.3674505      18038.418    
    390000   0.97215957     0.0023323615   0.00038914576  20.540662      19.097005      1.443657      -1.5503518      17770.879    
    391000   0.99455124     0.0023323615   0.00011187613  20.442036      18.965127      1.4769086     -1.5860197      17933.253    
    392000   1.0028592      0.0023323615  -0.0023424505   20.428328      18.939082      1.4892459     -1.5638329      17962.569    
    393000   1.0649967      0.0023323615   0.0032517861   20.699119      19.117598      1.5815202     -1.487446       17759.111    
    394000   1.0914306      0.0023323615  -0.0021898326   20.597812      18.977038      1.6207745     -1.6244464      17816.758    
    395000   1.0686253      0.0023323615  -0.0014833582   20.822664      19.235756      1.5869086     -1.3331524      17809.176    
    396000   0.91346739     0.0023323615   0.00055605772  20.729709      19.37321       1.3564991     -1.33289        17712.504    
    397000   0.97436146     0.0023323615  -0.0025752051   20.241799      18.794872      1.4469268     -1.6956133      18143.287    
    398000   0.94019589     0.0023323615  -0.0023062694   20.296561      18.90037       1.3961909     -1.5357539      18185.824    
    399000   0.95633167     0.0023323615   0.0032274627   20.538378      19.118226      1.4201525     -1.4274847      17924.638    
    400000   0.95456381     0.0023323615  -0.00036121561  20.660881      19.243353      1.4175273     -1.4829713      17891.649    
    401000   0.99749093     0.0023323615  -0.0037006791   20.771856      19.290582      1.481274      -1.2168782      17825.807    
    402000   1.0748953      0.0023323615  -0.00082799084  20.498991      18.902771      1.5962196     -1.5167935      17850.434    
    403000   1.0427105      0.0023323615  -0.0016474441   20.68521       19.136784      1.5484251     -1.3698965      17900.429    
    404000   0.91646828     0.0023323615  -0.001812878    20.771353      19.410397      1.3609554     -1.1918416      18027.758    
    405000   1.0873664      0.0023323615  -0.0015834184   20.777636      19.162897      1.6147391     -1.3689302      17827.921    
    406000   1.1513518      0.0023323615  -0.0013860947   20.851621      19.141864      1.7097575     -1.2981409      17857.667    
    407000   0.94052909     0.0023323615   0.0019770466   20.617748      19.221063      1.3966857     -1.2720585      18259.267    
    408000   1.0428908      0.0023323615   0.0020329936   20.731138      19.182445      1.5486929     -1.319365       18370.125    
    409000   0.99937109     0.0023323615   0.0066916481   20.582397      19.098331      1.4840661     -1.4484531      17533.736    
    410000   0.95439297     0.0023323615  -0.00017587921  20.486049      19.068775      1.4172736     -1.3814489      17919.569    
[...]
    861000   1.1468589      0.0023323615  -0.0015628522   20.813475      19.11039       1.7030855     -1.361013       17624.042    
    862000   1.0520662      0.0023323615  -0.0022809955   20.502907      18.940589      1.5623182     -1.5855627      17657.496    
    863000   1.1229068      0.0023323615   0.002087108    20.83967       19.172153      1.6675166     -1.3623064      17539.322    
    864000   1.0034359      0.0023323615   0.00042563446  20.310088      18.819986      1.4901023     -1.5906531      17534.352    
    865000   1.0905636      0.0023323615  -0.0021307045   20.387721      18.768234      1.619487      -1.7151992      17683.473    
    866000   0.8930988      0.0023323615   0.0017192181   20.224338      18.898087      1.3262517     -1.5508406      17589.512    
    867000   1.0955968      0.0023323615   0.0011915749   20.650606      19.023645      1.6269612     -1.4364765      17386.217    
    868000   1.0999362      0.0023323615  -0.0024777739   20.839592      19.206187      1.6334053     -1.4209359      17553.313    
    869000   1.0541155      0.0023323615   0.0017074858   20.479934      18.914573      1.5653615     -1.5022624      17569.832    
    870000   1.1205986      0.0023323615   0.00073528474  20.789838      19.125749      1.6640889     -1.3590361      17789.233    
    871000   1.1400019      0.0023323615   0.0014255636   20.874978      19.182076      1.6929028     -1.2660626      17838.483    
    872000   0.93681671     0.0023323615   0.0010123088   20.195476      18.804303      1.3911728     -1.660159       17366.88     
    873000   0.99466166     0.0023323615  -0.00250857     20.551955      19.074883      1.4770726     -1.5402057      17341.607    
    874000   1.0657228      0.0023323615  -0.00099672929  20.578815      18.996216      1.5825983     -1.4927972      17677.754    
    875000   0.87591059     0.0023323615   0.00015525629  20.157466      18.856739      1.3007272     -1.6633274      17609.217    
    876000   1.0741999      0.0023323615   0.0034944642   20.508237      18.91305       1.5951869     -1.560996       17433.757    
    877000   1.1500026      0.0023323615   0.0073077969   20.751841      19.044087      1.7077538     -1.5516683      17612.178    
    878000   0.99757135     0.0023323615  -0.0023932847   20.416829      18.935436      1.4813935     -1.5498564      17538.651    
    879000   0.87812808     0.0023323615   0.0060959268   20.549141      19.245121      1.3040202     -1.2509345      17585.697    
    880000   0.89412299     0.0023323615  -0.0022942379   20.442559      19.114787      1.3277726     -1.3144996      17849.32     
    881000   1.0090591      0.0023323615   0.0033123203   20.327403      18.82895       1.4984527     -1.5928091      17811.311    
    882000   1.035271       0.0023323615  -0.00078172134  20.496038      18.95866       1.5373775     -1.5432359      17615.921    
    883000   0.93253784     0.0023323615  -0.00056027172  20.418048      19.033229      1.3848187     -1.4425592      17667.748    
    884000   1.0297464      0.0023323615  -0.0016236098   20.514271      18.985098      1.5291734     -1.5428467      17641.283    
    885000   1.0453465      0.0023323615  -0.00038404664  20.69227       19.13993       1.5523396     -1.3467194      17514.415    
    886000   0.93731979     0.0023323615  -0.0019147589   20.668029      19.276109      1.3919199     -1.3232149      17757.632    
    887000   1.0762722      0.0023323615   0.00010482148  20.401707      18.803443      1.5982642     -1.6367667      17781.241    
    888000   0.91014486     0.0023323615  -0.00060765072  20.480053      19.128488      1.3515651     -1.3933834      18067.766    
    889000   1.2007804      0.0023323615   0.0018321623   20.958939      19.17578       1.7831589     -1.3780696      18045.945    
    890000   0.98684799     0.0023323615   0.00023588458  20.813518      19.348048      1.4654693     -1.3069881      17833.769    
    891000   1.019429       0.0023323615   0.00053105865  20.45747       18.943618      1.513852      -1.5142075      17805.726    
    892000   0.96525861     0.0023323615  -0.001809913    20.418759      18.98535       1.433409      -1.5375008      17553.128    
    893000   0.89153101     0.0023323615  -0.0040491422   20.284817      18.960893      1.3239235     -1.4769406      17773.028    
    894000   0.98444897     0.0023323615   0.0036921978   20.634315      19.172408      1.4619067     -1.3731512      18177.362    
    895000   1.0854725      0.0023323615  -0.0050414836   20.546012      18.934086      1.6119267     -1.5030494      17854.112    
    896000   1.0214592      0.0023323615  -0.0022753717   20.657555      19.140688      1.516867      -1.3773144      17719.201    
    897000   1.0213082      0.0023323615  -0.00082098794  20.713464      19.196821      1.5166426     -1.3185558      17652.462    
    898000   0.97340168     0.0023323615   0.0037924736   20.163292      18.717791      1.4455015     -1.7201627      17737.833    
    899000   1.0330159      0.0023323615   0.00040000768  20.514142      18.980113      1.5340286     -1.4855357      17677.999    
    900000   1.0158522      0.0023323615  -0.00088605981  20.771069      19.262529      1.5085405     -1.2630738      17589.425    
    901000   0.95626092     0.0023323615   0.0046282353   20.379872      18.959825      1.4200475     -1.6272858      17842.629    
    902000   1.0149818      0.0023323615   0.0016283231   20.692897      19.185649      1.507248      -1.454862       17815.75     
    903000   0.97995893     0.0023323615   0.003628218    20.648732      19.193493      1.455239      -1.2290622      17800.832    
    904000   0.98057251     0.0023323615   0.00012550765  20.452818      18.996668      1.4561502     -1.4318098      17787.448    
    905000   0.9529354      0.0023323615  -0.0006718277   20.287575      18.872466      1.4151091     -1.6353111      17596.12     
    906000   1.109639       0.0023323615   0.0021888864   20.756674      19.10886       1.6478139     -1.4493654      17912.617    
    907000   1.0124578      0.0023323615   0.00029853086  20.620526      19.117027      1.5034998     -1.4953924      17756.151    
    908000   1.0141984      0.0023323615  -0.00056660387  20.396066      18.889982      1.5060846     -1.5783683      17584.587    
    909000   1.0641425      0.0023323615   0.0023437013   20.470263      18.890012      1.5802516     -1.5955688      17659.158    
    910000   1.1680434      0.0023323615  -0.0023362873   20.7281        18.993556      1.7345444     -1.530627       17753.374    
    911000   1.0033081      0.0023323615  -0.0042916455   20.521312      19.0314        1.4899125     -1.5129372      17542.525    
    912000   1.0005792      0.0023323615  -0.0014768144   20.563326      19.077466      1.4858601     -1.4078464      17478.084    
    913000   0.9836809      0.0023323615   0.0009031639   20.468483      19.007716      1.4607661     -1.5074435      17496.089    
    914000   0.8481876      0.0023323615  -0.001867749    20.632789      19.37323       1.2595586     -1.2798499      17740.812    
    915000   0.87389841     0.0023323615   0.0044696375   20.315587      19.017848      1.2977391     -1.4710873      17641.548    
    916000   1.0976896      0.0023323615  -0.00095959872  20.900701      19.270632      1.6300691     -1.3139408      17562.499    
    917000   0.91267256     0.0023323615   0.0013293555   20.334404      18.979085      1.3553188     -1.4424972      17767.324    
    918000   1.1430131      0.0023323615   0.0020023684   20.662396      18.965022      1.6973744     -1.5519168      17691.149    
    919000   1.1251382      0.0023323615   0.0015131364   20.538276      18.867446      1.6708302     -1.5604658      17543.74     
    920000   0.98206476     0.0023323615   0.00064290312  20.50145       19.043084      1.4583662     -1.4752301      17444.266    
    921000   0.99654413     0.0023323615  -0.001526663    20.641739      19.161871      1.479868      -1.4362853      17446.233    
    922000   1.0159003      0.0023323615   0.0013366487   20.514416      19.005804      1.508612      -1.5116709      17581.174    
    923000   0.94846467     0.0023323615  -0.0019650323   20.434721      19.026251      1.40847       -1.3823103      17692.686    
    924000   0.90253601     0.0023323615  -0.0011022793   20.434685      19.094419      1.340266      -1.3962984      17795.691    
    925000   1.0900175      0.0023323615   0.0017597751   20.705837      19.087161      1.618676      -1.4571236      17762.432    
    926000   1.1569787      0.0023323615  -0.0008955489   20.744793      19.02668       1.7181133     -1.4615213      17685.695    
    927000   1.0591835      0.0023323615   0.00096422643  20.510653      18.937766      1.5728875     -1.4325672      17748.866    
    928000   1.0454975      0.0023323615  -0.0033682716   20.53431       18.981746      1.5525638     -1.5225824      17526.843    
    929000   0.99667767     0.0023323615  -0.0002266858   20.761361      19.281295      1.4800663     -1.364607       17435.904    
    930000   1.0034024      0.0023323615  -0.00092599436  20.659862      19.16981       1.4900526     -1.2831414      17690.302    
    931000   1.0684347      0.0023323615   0.0015361477   20.757103      19.170477      1.5866255     -1.4024254      17824.566    
    932000   0.98891823     0.0023323615  -0.0024325406   20.70884       19.240296      1.4685436     -1.3602738      17742.361    
    933000   1.0392119      0.0023323615   0.0020276302   20.618133      19.074904      1.5432297     -1.4184969      17697.934    
    934000   1.0198827      0.0023323615   0.0050783025   20.571757      19.057231      1.5145258     -1.4185138      17485.181    
    935000   1.0547675      0.0023323615  -0.0025439909   20.669391      19.103061      1.5663297     -1.429592       17414.984    
    936000   1.0005864      0.0023323615   0.0018376014   20.7977        19.311829      1.4858708     -1.1909847      17904.025    
    937000   0.95995889     0.0023323615   0.0022013872   20.890466      19.464927      1.4255389     -1.1365795      17948.151    
    938000   0.92595032     0.0023323615   0.0038886644   20.477272      19.102235      1.3750362     -1.3332512      17860.013    
    939000   1.0276403      0.0023323615   0.00037938234  20.560555      19.034509      1.5260459     -1.3800058      17634.897    
    940000   0.92926246     0.0023323615  -0.0025250577   20.539462      19.159507      1.3799548     -1.3259829      17844.08     
    941000   1.0348277      0.0023323615   0.0020769706   20.661369      19.12465       1.5367192     -1.3601025      17832.221    
    942000   0.98600253     0.0023323615   0.00058977003  20.531273      19.06706       1.4642138     -1.4708476      17760.659    
    943000   1.0503542      0.0023323615   0.00089624154  20.68944       19.129664      1.559776      -1.3626048      17573.912    
    944000   0.94942406     0.0023323615  -0.00089377804  20.059705      18.649811      1.4098947     -1.7967722      17463.17     
    945000   0.92169746     0.0023323615  -0.0016325276   20.483076      19.114356      1.3687207     -1.4060246      17386.677    
    946000   0.97288774     0.0023323615  -0.006295364    20.456753      19.012015      1.4447383     -1.514156       17782.593    
    947000   1.0161064      0.0023323615   0.0028178421   20.600187      19.091269      1.5089181     -1.4607996      17595.893    
    948000   0.91783393     0.0023323615  -0.00087094145  20.432858      19.069875      1.3629834     -1.3898096      17579.202    
    949000   1.0520571      0.0023323615   0.0036181927   20.537474      18.975169      1.5623048     -1.5575521      17490.515    
    950000   1.0971457      0.0023323615  -0.0066478932   20.612339      18.983078      1.6292614     -1.4778866      17525.436    
    951000   1.0795416      0.0023323615   0.0022163652   20.56235       18.95923       1.6031193     -1.5053175      17701.092    
    952000   0.85476495     0.0023323615  -0.00010033308  20.110083      18.840757      1.269326      -1.5932578      17670.472    
    953000   0.8698176      0.0023323615   0.0054088982   20.358988      19.067308      1.2916791     -1.6127912      17525.049    
    954000   1.0139017      0.0023323615  -0.00045173199  20.529773      19.024129      1.5056441     -1.6028193      17409.155    
    955000   0.97990723     0.0023323615   0.00094569449  20.510953      19.055791      1.4551622     -1.356253       17504.874    
    956000   1.105548       0.0023323615  -0.0007992472   20.565443      18.923704      1.6417388     -1.4738708      17545.837    
    957000   1.0048622      0.0023323615  -4.5186589e-05  20.861992      19.369772      1.4922204     -1.1983286      17660.38     
    958000   0.92738597     0.0023323615   0.0027252623   20.568131      19.190962      1.3771682     -1.2803356      17661.376    
    959000   0.95384328     0.0023323615   0.0016821492   20.593563      19.177105      1.4164573     -1.2754474      17749.649    
    960000   0.96914411     0.0023323615   0.0029822558   20.667234      19.228055      1.439179      -1.2775767      17968.613    
    961000   1.0343856      0.0023323615  -0.0064874676   20.799852      19.263789      1.5360626     -1.3243803      17682.436    
    962000   0.95597992     0.0023323615  -0.0038520263   20.299335      18.879704      1.4196302     -1.6444355      17545.902    
    963000   0.91088902     0.0023323615  -0.0013222262   20.244616      18.891945      1.3526702     -1.6022109      17386.096    
    964000   1.0965296      0.0023323615   0.0016019693   20.548406      18.92006       1.6283465     -1.5501194      17353.468    
    965000   1.0967755      0.0023323615   0.00081920417  20.542266      18.913554      1.6287117     -1.6313793      17471.13     
    966000   0.9665394      0.0023323615  -0.0028670697   20.461445      19.026134      1.435311      -1.5984942      17478.114    
    967000   1.0078149      0.0023323615   0.0010246656   20.661667      19.165062      1.4966051     -1.3420026      17656.24     
    968000   0.92182087     0.0023323615  -0.00311261     20.458288      19.089384      1.368904      -1.2926158      17576.852    
    969000   1.0140087      0.0023323615  -0.0016162684   20.726135      19.220332      1.505803      -1.3083766      17795.51     
    970000   0.98633653     0.0023323615  -0.0027550232   20.574356      19.109646      1.4647097     -1.4418244      17693.457    
    971000   0.90639914     0.0023323615  -0.0020048859   20.329626      18.983624      1.3460027     -1.5133855      17472.231    
    972000   0.88891846     0.0023323615  -0.00017849334  20.311037      18.990993      1.3200439     -1.4531586      17427.682    
    973000   1.1579646      0.0023323615   0.0015648411   20.628661      18.909084      1.7195774     -1.5806126      17669.874    
    974000   1.0364509      0.0023323615  -0.00016363869  20.689141      19.150011      1.5391296     -1.3575866      17650.558    
    975000   1.0577936      0.0023323615   0.004476693    20.785451      19.214627      1.5708235     -1.390646       17583.624    
    976000   1.0955747      0.0023323615   0.0043459055   20.35473       18.727802      1.6269284     -1.6399463      17772.683    
    977000   0.98058098     0.0023323615  -0.0030487499   20.560129      19.103966      1.4561628     -1.4698701      17782.828    
    978000   0.93367415     0.0023323615   0.00053940349  20.357654      18.971148      1.3865061     -1.4573991      17581.521    
    979000   0.87205677     0.0023323615   0.0005898183   20.267793      18.972789      1.2950043     -1.5738739      17682.64     
    980000   1.0428024      0.0023323615   0.0018834052   20.748739      19.200177      1.5485615     -1.3688973      17714.497    
    981000   0.90458278     0.0023323615   0.0013718382   20.551023      19.207718      1.3433054     -1.3235144      17861.311    
    982000   1.1127582      0.0023323615   0.0035812471   20.644075      18.991629      1.6524459     -1.4431892      17995.518    
    983000   0.99772435     0.0023323615   0.0023157028   20.831495      19.349874      1.4816207     -1.4127104      18032.764    
    984000   0.80777261     0.0023323615  -0.00066819289  20.295298      19.095756      1.1995423     -1.6246095      17840.463    
    985000   1.0838861      0.0023323615  -0.0045925967   20.683129      19.073558      1.6095709     -1.4931309      17819.926    
    986000   1.026664       0.0023323615  -0.0033180719   20.430874      18.906278      1.524596      -1.5382491      17879.173    
    987000   0.97772965     0.0023323615  -0.0013580612   20.37728       18.925351      1.4519285     -1.5875635      18487.228    
    988000   1.0318463      0.0023323615  -0.00056822321  20.554303      19.022011      1.5322917     -1.5330808      19221.79     
    989000   0.94172617     0.0023323615   0.00073473287  20.446494      19.04803       1.3984634     -1.5209211      19089.779    
    990000   0.98561856     0.0023323615   0.0020841932   20.452895      18.989251      1.4636436     -1.512964       19082.078    
    991000   0.96797435     0.0023323615   0.0017689344   20.597859      19.160417      1.4374419     -1.3905799      19080.539    
    992000   0.97831223     0.0023323615   0.0012679236   20.330251      18.877457      1.4527937     -1.6601819      19309.908    
    993000   0.92810944     0.0023323615   0.00020838871  20.458835      19.080593      1.3782425     -1.389504       17823.133    
    994000   0.91826703     0.0023323615   0.00079850232  20.372983      19.009356      1.3636265     -1.4248646      18047.54     
    995000   1.0141345      0.0023323615  -0.0007041685   20.482856      18.976866      1.5059898     -1.475423       19203.799    
    996000   0.98155453     0.0023323615   0.0024903064   20.353836      18.896228      1.4576085     -1.5666843      19419.939    
    997000   0.95016102     0.0023323615   0.0019325629   20.603067      19.192078      1.4109891     -1.3554521      18954.236    
    998000   1.1365358      0.0023323615  -0.0027207453   20.742334      19.054579      1.6877557     -1.4990076      18708.903    
    999000   0.99542463     0.0023323615   0.0026399698   20.499398      19.021192      1.4782056     -1.5076373      18017.783    
   1000000   1.1369543      0.0023323615  -0.0049554523   20.953828      19.265451      1.6883771     -1.3720945      18190.948    
Loop time of 56.25 on 1 procs for 1000000 steps with 100 atoms

Performance: 7680002.320 tau/day, 17777.783 timesteps/s
99.4% CPU use with 1 MPI tasks x 1 OpenMP threads

MPI task timing breakdown:
Section |  min time  |  avg time  |  max time  |%varavg| %total
---------------------------------------------------------------
Pair    | 46.816     | 46.816     | 46.816     |   0.0 | 83.23
Bond    | 1.4252     | 1.4252     | 1.4252     |   0.0 |  2.53
Neigh   | 3.8216     | 3.8216     | 3.8216     |   0.0 |  6.79
Comm    | 1.6616     | 1.6616     | 1.6616     |   0.0 |  2.95
Output  | 0.2144     | 0.2144     | 0.2144     |   0.0 |  0.38
Modify  | 1.9551     | 1.9551     | 1.9551     |   0.0 |  3.48
Other   |            | 0.3557     |            |       |  0.63

Nlocal:            100 ave         100 max         100 min
Histogram: 1 0 0 0 0 0 0 0 0 0
Nghost:            342 ave         342 max         342 min
Histogram: 1 0 0 0 0 0 0 0 0 0
Neighs:           4851 ave        4851 max        4851 min
Histogram: 1 0 0 0 0 0 0 0 0 0

Total # of neighbors = 4851
Ave neighs/atom = 48.51
Ave special neighs/atom = 1.98
Neighbor list builds = 97879
Dangerous builds = 79958

write_data      ${outputfile_assembled} nofix nocoeff
write_data      7_assembled.data nofix nocoeff
System init for write_data ...
Generated 0 of 6 mixed pair_coeff terms from geometric mixing rule

Total wall time: 0:00:57
