LAMMPS (23 Jun 2022 - Update 1)
OMP_NUM_THREADS environment is not set. Defaulting to 1 thread. (src/comm.cpp:98)
  using 1 OpenMP thread(s) per MPI task


variable        runtime equal 1000000
variable		subsample_rate equal 1000

variable		outputfile_created string '3_created.data'
variable		outputfile_relaxed string '5_relaxed.data'
variable		outputfile_selfasb string '6_a_self_assemble.lammpstrj'
variable		outputfile_trajlin string '6_b_trajlin.data'
variable		outputfile_assembled string '7_assembled.data'

units           lj
atom_style      full
dimension       3
boundary        p p p
timestep        0.005

read_data       ${outputfile_created}
read_data       3_created.data
Reading data file ...
  orthogonal box = (0 0 0) to (35 35 35)
  1 by 1 by 1 MPI processor grid
  reading atoms ...
  100 atoms
  reading velocities ...
  100 velocities
  scanning bonds ...
  1 = max bonds/atom
  reading bonds ...
  99 bonds
Finding 1-2 1-3 1-4 neighbors ...
  special bond factors lj:    0        0        0       
  special bond factors coul:  0        0        0       
     2 = max # of 1-2 neighbors
     2 = max # of 1-3 neighbors
     4 = max # of 1-4 neighbors
     6 = max # of special neighbors
  special bonds CPU = 0.000 seconds
  read_data CPU = 0.007 seconds

bond_style      fene
bond_coeff      * 30.0 1.5 1.0 1.0
special_bonds   fene
Finding 1-2 1-3 1-4 neighbors ...
  special bond factors lj:    0        1        1       
  special bond factors coul:  0        1        1       
     2 = max # of 1-2 neighbors
     6 = max # of special neighbors
  special bonds CPU = 0.000 seconds

variable        Temp equal 1.0
variable        velSeed equal 926458

velocity        all create ${Temp} ${velSeed}
velocity        all create 1 ${velSeed}
velocity        all create 1 926458

### Output
thermo_style    custom step temp density press etotal pe ke epair spcpu
thermo          1000

###########################################################################
# Soft relaxation (to remove overlaps of particles)
######################################################################

pair_style      soft 1.0
pair_coeff      * * 0.0
variable        prefactor equal ramp(0,300)
fix             rampSoft all adapt 1 pair soft a * * v_prefactor

minimize        0.0 1.0e-8 1000 100000
WARNING: Using 'neigh_modify every 1 delay 0 check yes' setting during minimization (src/min.cpp:187)
Generated 0 of 6 mixed pair_coeff terms from geometric mixing rule
Neighbor list info ...
  update every 1 steps, delay 0 steps, check yes
  max neighbors/atom: 2000, page size: 100000
  master list distance cutoff = 1.3
  ghost atom cutoff = 1.3
  binsize = 0.65, bins = 54 54 54
  1 neighbor lists, perpetual/occasional/extra = 1 0 0
  (1) pair soft, perpetual
      attributes: half, newton on
      pair build: half/bin/newton
      stencil: half/bin/3d
      bin: standard
WARNING: Communication cutoff 1.3 is shorter than a bond length based estimate of 1.7550000000000001. This may lead to errors. (src/comm.cpp:727)
Per MPI rank memory allocation (min/avg/max) = 8.346 | 8.346 | 8.346 Mbytes
   Step          Temp         Density         Press          TotEng         PotEng         KinEng         E_pair         S/CPU     
         0   1              0.0023323615  -0.0039617958   21.524174      20.039174      1.485          0              0            
       362   1              0.0023323615   0.0023090379   21.485548      20.000548      1.485          0              68798.757    
Loop time of 0.00526467 on 1 procs for 362 steps with 100 atoms

95.0% CPU use with 1 MPI tasks x 1 OpenMP threads

Minimization stats:
  Stopping criterion = force tolerance
  Energy initial, next-to-last, final = 
      20.0391741078675   20.0005480767337   20.0005480767337
  Force two-norm initial, final = 11.878422 7.9509778e-09
  Force max component initial, final = 6.6117807 1.3572772e-09
  Final line search alpha, max atom move = 1 1.3572772e-09
  Iterations, force evaluations = 362 738

MPI task timing breakdown:
Section |  min time  |  avg time  |  max time  |%varavg| %total
---------------------------------------------------------------
Pair    | 0.00022531 | 0.00022531 | 0.00022531 |   0.0 |  4.28
Bond    | 0.0023426  | 0.0023426  | 0.0023426  |   0.0 | 44.50
Neigh   | 0.0015273  | 0.0015273  | 0.0015273  |   0.0 | 29.01
Comm    | 0.00018518 | 0.00018518 | 0.00018518 |   0.0 |  3.52
Output  | 0          | 0          | 0          |   0.0 |  0.00
Modify  | 0          | 0          | 0          |   0.0 |  0.00
Other   |            | 0.0009843  |            |       | 18.70

Nlocal:            100 ave         100 max         100 min
Histogram: 1 0 0 0 0 0 0 0 0 0
Nghost:             20 ave          20 max          20 min
Histogram: 1 0 0 0 0 0 0 0 0 0
Neighs:              0 ave           0 max           0 min
Histogram: 1 0 0 0 0 0 0 0 0 0

Total # of neighbors = 0
Ave neighs/atom = 0
Ave special neighs/atom = 1.98
Neighbor list builds = 17
Dangerous builds = 0

fix             nvtSoft all nvt temp ${Temp} ${Temp} 0.5
fix             nvtSoft all nvt temp 1 ${Temp} 0.5
fix             nvtSoft all nvt temp 1 1 0.5
run             100000
Generated 0 of 6 mixed pair_coeff terms from geometric mixing rule
WARNING: Communication cutoff 1.3 is shorter than a bond length based estimate of 1.7550000000000001. This may lead to errors. (src/comm.cpp:727)
Per MPI rank memory allocation (min/avg/max) = 7.221 | 7.221 | 7.221 Mbytes
   Step          Temp         Density         Press          TotEng         PotEng         KinEng         E_pair         S/CPU     
       362   1              0.0023323615   0.0023090379   21.485548      20.000548      1.485          0              0            
      1000   0.90989032     0.0023323615  -0.0021940042   21.776974      20.425787      1.3511871      0.00036425437  77969.879    
      2000   0.86546688     0.0023323615   0.0034714157   21.677128      20.39191       1.2852183      0.0025814786   76789.398    
      3000   0.98199538     0.0023323615   0.0028144228   21.866132      20.407869      1.4582631      0.0011756043   73561.757    
      4000   1.004495       0.0023323615  -0.0014058211   21.945624      20.453949      1.4916751      0.011986179    73818.22     
      5000   1.1222705      0.0023323615   0.0044495116   21.986385      20.319813      1.6665718      0.0050317639   74037.236    
      6000   1.0538243      0.0023323615   0.0023957538   21.985713      20.420784      1.564929       0.012100514    74988.062    
      7000   1.0210598      0.0023323615  -0.00038820026  21.904665      20.388391      1.5162738      0              76473.869    
      8000   0.94819751     0.0023323615   0.0024943091   21.747889      20.339816      1.4080733      0              76112.838    
      9000   0.92364502     0.0023323615   0.0020053029   21.724166      20.352554      1.3716129      1.7780894e-05  75230.987    
     10000   0.86685188     0.0023323615   0.00078277366  21.644879      20.357604      1.287275       0.0098636418   75928.547    
     11000   1.0057103      0.0023323615   0.00010113276  21.8558        20.362321      1.4934798      0.020705341    75635.167    
     12000   0.97901664     0.0023323615  -0.0026996968   21.871206      20.417366      1.4538397      0.0052928539   74890.665    
     13000   0.97718436     0.0023323615  -6.1641422e-06  21.963706      20.512587      1.4511188      0.025022446    75074.359    
     14000   1.0530014      0.0023323615  -0.0009993112   21.947994      20.384287      1.5637071      0.0020860456   74314.451    
     15000   0.99094527     0.0023323615   0.0011068478   21.895146      20.423592      1.4715537      0.0015091113   75314.09     
     16000   0.91285091     0.0023323615  -0.00025424173  21.87524       20.519657      1.3555836      0.0047853639   74719.898    
     17000   0.82806978     0.0023323615  -0.00054698156  21.701984      20.472301      1.2296836      0              75216.411    
     18000   1.043278       0.0023323615  -6.6143919e-05  22.003299      20.454031      1.5492679      0.0034319132   75923.002    
     19000   1.0879249      0.0023323615  -0.0017804642   21.998985      20.383416      1.6155685      0.015376175    74807.543    
     20000   1.1144506      0.0023323615   0.0025198298   22.190904      20.535944      1.6549592      0              75811.592    
     21000   1.0427751      0.0023323615   0.0011345349   22.099492      20.550971      1.548521       0.00040047813  75793.629    
     22000   1.0586695      0.0023323615   0.0017882747   22.05673       20.484606      1.5721242      0              75629.264    
     23000   1.0058426      0.0023323615  -0.0055245362   21.954628      20.460951      1.4936763      0.0027619031   74686.743    
     24000   0.98273442     0.0023323615   0.0015147357   21.862067      20.402707      1.4593606      0              75216.015    
     25000   0.95835343     0.0023323615   0.0017808774   21.937761      20.514606      1.4231548      0.00020839942  74818.53     
     26000   0.93993778     0.0023323615  -0.0021777292   21.884849      20.489042      1.3958076      0.0088889834   75398.974    
     27000   0.9308188      0.0023323615  -0.00011239942  21.842252      20.459986      1.3822659      0.021612409    74391.887    
     28000   1.0149581      0.0023323615   0.0041996387   21.906846      20.399633      1.5072129      0.0064059022   75326.196    
     29000   0.92841138     0.0023323615  -2.5398808e-05  21.987185      20.608494      1.3786909      0.0046112484   75052.283    
     30000   1.021043       0.0023323615   0.001589158    22.097958      20.581709      1.5162489      0.016799508    72625.238    
     31000   1.0465985      0.0023323615  -0.0021744286   22.037917      20.483718      1.5541987      0.0057879149   75691.604    
     32000   0.98907108     0.0023323615  -0.0015558606   22.044089      20.575318      1.4687705      0.009448173    75113.286    
     33000   1.0918536      0.0023323615  -0.0025643847   22.039275      20.417873      1.6214025      0              74223.549    
     34000   0.99801543     0.0023323615   0.0016279766   21.932339      20.450286      1.4820529      0.017384617    76551.467    
     35000   1.0352271      0.0023323615  -0.0052971711   22.076004      20.538692      1.5373122      0.00010473809  75115.768    
     36000   1.1141579      0.0023323615  -0.00093279925  22.222491      20.567966      1.6545245      0.00033678641  76074.437    
     37000   1.0369415      0.0023323615   0.00013065175  22.217841      20.677983      1.5398581      0.013788831    75316.535    
     38000   1.0515596      0.0023323615   0.0021717558   22.070766      20.5092        1.561566       0.0067894678   75786.202    
     39000   1.0238495      0.0023323615   0.00026414509  22.040141      20.519725      1.5204165      0.00044464649  75014.945    
     40000   1.0749111      0.0023323615  -0.0026849368   22.039327      20.443084      1.596243       0.012651334    73558.181    
     41000   0.99070886     0.0023323615  -0.0030385564   22.03241       20.561207      1.4712027      0.00092855646  76492.975    
     42000   0.95315224     0.0023323615   0.0019788197   21.965263      20.549832      1.4154311      0.020233689    74959.057    
     43000   1.0644183      0.0023323615  -0.0011168725   22.287172      20.706511      1.5806611      0.039694129    74966.548    
     44000   1.0253747      0.0023323615  -0.006676522    22.066233      20.543552      1.5226814      0              74026.527    
     45000   0.94179556     0.0023323615  -0.0047206018   21.970644      20.572077      1.3985664      0.019869988    74673.615    
     46000   1.0083495      0.0023323615  -0.0017646918   21.972114      20.474715      1.497399       0.00026040605  74725.771    
     47000   0.98767959     0.0023323615  -0.00080218158  22.091674      20.62497       1.4667042      0.024266258    74773.416    
     48000   1.1473449      0.0023323615  -0.0025885687   22.080512      20.376705      1.7038072      0.00065962995  74908.987    
     49000   1.0679312      0.0023323615   0.0017688272   21.970482      20.384604      1.5858779      0.014142422    75979.349    
     50000   0.9581935      0.0023323615   0.0014398836   21.955202      20.532284      1.4229173      0.0055011948   69009.221    
     51000   1.0215759      0.0023323615  -0.00093292688  21.934681      20.41764       1.5170402      0              74486.93     
     52000   0.98079591     0.0023323615   0.0040701936   21.977374      20.520892      1.4564819      0.0020862422   76015.684    
     53000   1.0090927      0.0023323615   0.0013324753   22.095438      20.596935      1.4985027      0              75348.718    
     54000   0.97519627     0.0023323615   0.0013260734   22.070151      20.621984      1.4481665      0.026885444    76188.363    
     55000   1.1805087      0.0023323615  -0.001586238    22.424088      20.671033      1.7530554      0.024690954    75970.506    
     56000   0.98387121     0.0023323615   0.0037155145   22.104425      20.643376      1.4610487      0.01435493     75457.626    
     57000   1.0723812      0.0023323615  -0.0037916262   22.122726      20.53024       1.592486       0.013635549    75812.511    
     58000   1.0152349      0.0023323615   0.00021908047  22.082827      20.575203      1.5076238      0.00077375639  75459.505    
     59000   1.1424502      0.0023323615  -0.0052108657   22.30072       20.604182      1.6965385      0.013308184    76289.696    
     60000   1.0359703      0.0023323615  -0.00097887545  22.188218      20.649802      1.538416       0.00011346294  74887.182    
     61000   1.1646839      0.0023323615  -0.002085017    22.239945      20.51039       1.7295556      0.012918477    76944.254    
     62000   1.101836       0.0023323615   0.0010338878   22.171386      20.53516       1.6362265      0.001396566    75799.558    
     63000   0.96616435     0.0023323615   0.00097550571  21.903821      20.469067      1.4347541      0.013027663    77232.232    
     64000   1.0068907      0.0023323615  -0.0020278726   22.061652      20.566419      1.4952327      0.013750276    75598.452    
     65000   0.98723233     0.0023323615   0.0022441476   22.031073      20.565033      1.46604        0.0066686189   76215.649    
     66000   1.0273881      0.0023323615  -0.0003515278   22.183579      20.657908      1.5256713      0              74382.071    
     67000   0.96528212     0.0023323615  -0.00014822656  21.9396        20.506156      1.4334439      0.010365557    76304.977    
     68000   1.069702       0.0023323615   9.4754668e-05  22.081119      20.492611      1.5885075      0.00049153926  73593.595    
     69000   1.1229502      0.0023323615   0.0011504079   22.200329      20.532748      1.6675811      0.0068454249   76285.96     
     70000   1.0062775      0.0023323615  -0.00085311964  22.094021      20.599699      1.4943221      0.013222355    74744.404    
     71000   1.0906935      0.0023323615   0.00015260357  22.145362      20.525682      1.6196798      0.018338513    75563.252    
     72000   1.010401       0.0023323615  -6.0487182e-06  22.154105      20.653659      1.5004455      0.0013793953   74343.18     
     73000   1.1177599      0.0023323615  -0.0034084797   22.254435      20.594562      1.6598735      0.00011231735  77185.114    
     74000   0.9768019      0.0023323615   0.00016143893  22.07312       20.622569      1.4505508      0.0084515956   75391.339    
     75000   1.1360996      0.0023323615   0.002159116    22.161595      20.474487      1.6871079      0.0089909162   76100.252    
     76000   0.97379329     0.0023323615  -0.00068458621  21.988928      20.542845      1.446083       0              75167.415    
     77000   0.94876793     0.0023323615  -0.0016073976   21.923496      20.514575      1.4089204      0.017745108    75337.569    
     78000   0.83947996     0.0023323615  -0.00062768559  21.726727      20.480099      1.2466277      0.0054510099   75970.558    
     79000   1.0090614      0.0023323615  -0.00080262643  22.068192      20.569736      1.4984562      0.00023011166  76627.748    
     80000   1.1217643      0.0023323615  -0.0038177864   22.367902      20.702082      1.66582        0.032902439    75780.913    
     81000   1.0240158      0.0023323615   0.00023547123  22.031597      20.510933      1.5206635      0.0068767308   75248.112    
     82000   1.003236       0.0023323615  -0.0022802982   21.894199      20.404393      1.4898055      0.019136282    74534.376    
     83000   1.0554159      0.0023323615   0.004011718    22.104562      20.537269      1.5672927      0.0080869707   74163.708    
     84000   0.83527346     0.0023323615  -0.0034122221   21.874648      20.634267      1.2403811      0.0030083664   75528.085    
     85000   1.036002       0.0023323615   0.0013573923   21.962923      20.42446       1.5384629      0.015709144    76073.685    
     86000   0.9432002      0.0023323615  -0.0032183248   21.913588      20.512936      1.4006523      0.013730309    75981.837    
     87000   0.95566008     0.0023323615  -0.00049614223  21.91653       20.497375      1.4191552      0.0035862035   75080.402    
     88000   0.93373351     0.0023323615  -0.00097093893  21.870485      20.483891      1.3865943      0.0018212145   74695.965    
     89000   0.9684944      0.0023323615  -0.00047342045  21.973429      20.535215      1.4382142      0.00087524744  75004.795    
     90000   0.98293324     0.0023323615  -0.0032204602   22.050919      20.591263      1.4596559      0.015353933    76271.042    
     91000   1.0832827      0.0023323615   0.0048517083   22.11977       20.511095      1.6086749      0.0052867789   77226.738    
     92000   0.85899662     0.0023323615  -0.0013049519   21.765697      20.490087      1.27561        0.0024124001   75971.193    
     93000   0.96176266     0.0023323615  -4.4223672e-05  21.874222      20.446004      1.4282176      0.0045653365   76671.253    
     94000   0.96019503     0.0023323615   0.00024459347  21.944954      20.519064      1.4258896      3.8053462e-05  76027.907    
     95000   0.94702149     0.0023323615  -0.0033658915   21.86315       20.456823      1.4063269      0              76732.485    
     96000   0.91119348     0.0023323615  -0.0013197298   21.825018      20.471896      1.3531223      0.00043282989  75400.111    
     97000   1.0016687      0.0023323615  -0.0019514304   22.013024      20.525546      1.487478       0.0048369955   75065.382    
     98000   1.02143        0.0023323615  -0.0057874974   22.177965      20.661142      1.5168235      0              74033.778    
     99000   1.032786       0.0023323615   0.0018228259   21.975336      20.441649      1.5336871      7.1595851e-05  77098.963    
    100000   1.0594928      0.0023323615   0.0036169719   22.011024      20.437677      1.5733468      0.00032948157  75369.821    
    100362   1.1904942      0.0023323615  -0.00089755607  22.316856      20.548972      1.7678839      0.00063845255  74800.281    
Loop time of 1.32761 on 1 procs for 100000 steps with 100 atoms

Performance: 32539608.253 tau/day, 75323.167 timesteps/s
98.5% CPU use with 1 MPI tasks x 1 OpenMP threads

MPI task timing breakdown:
Section |  min time  |  avg time  |  max time  |%varavg| %total
---------------------------------------------------------------
Pair    | 0.050304   | 0.050304   | 0.050304   |   0.0 |  3.79
Bond    | 0.1287     | 0.1287     | 0.1287     |   0.0 |  9.69
Neigh   | 0.80585    | 0.80585    | 0.80585    |   0.0 | 60.70
Comm    | 0.055506   | 0.055506   | 0.055506   |   0.0 |  4.18
Output  | 0.00117    | 0.00117    | 0.00117    |   0.0 |  0.09
Modify  | 0.25201    | 0.25201    | 0.25201    |   0.0 | 18.98
Other   |            | 0.03407    |            |       |  2.57

Nlocal:            100 ave         100 max         100 min
Histogram: 1 0 0 0 0 0 0 0 0 0
Nghost:             60 ave          60 max          60 min
Histogram: 1 0 0 0 0 0 0 0 0 0
Neighs:             36 ave          36 max          36 min
Histogram: 1 0 0 0 0 0 0 0 0 0

Total # of neighbors = 36
Ave neighs/atom = 0.36
Ave special neighs/atom = 1.98
Neighbor list builds = 9821
Dangerous builds = 8265
unfix           nvtSoft
unfix           rampSoft
reset_timestep  0

write_data      ${outputfile_relaxed}
write_data      5_relaxed.data
System init for write_data ...
Generated 0 of 6 mixed pair_coeff terms from geometric mixing rule
WARNING: Communication cutoff 1.3 is shorter than a bond length based estimate of 1.7550000000000001. This may lead to errors. (src/comm.cpp:727)
WARNING: Not all mixed pair coeffs generated from mixing. Use write_data with 'pair ij' option to store all pair coeffs. (src/write_data.cpp:309)

###########################################################################
# Full LJ with Coulomb
######################################################################

# Cutoffs and parameters:
# - Values: Marcel Verkade's Bachelor Thesis
# - Mapping to atom groups: Patrick Onck's paper
# - 1: aliphatic, 2: aromatic, 3: anion, 4: cation
# pair_style	lj/cut/coul/cut <lj_cut_global> <coul_cut_global>
# pair_coeff	<type_1>  <type_2>  <eps>  <sigma>  <r_cut_lj>  <r_cut_coul>

# Problem: Onck's model is much more complex, and Marcel has no sigma reported
# Using sigma=1 randomly

variable		glob_ljeps equal 1.0
variable		glob_ljsig 	equal 1.0
variable		glob_coulcut equal 10.0
variable		att_ljcut equal 2.50
variable		rep_ljcut equal 1.12

pair_style		lj/cut/coul/cut 						${att_ljcut} 	${glob_coulcut}
pair_style		lj/cut/coul/cut 						2.5 	${glob_coulcut}
pair_style		lj/cut/coul/cut 						2.5 	10
pair_coeff		1 1 	${glob_ljeps} 	${glob_ljsig}	${att_ljcut} 	${glob_coulcut}
pair_coeff		1 1 	1 	${glob_ljsig}	${att_ljcut} 	${glob_coulcut}
pair_coeff		1 1 	1 	1	${att_ljcut} 	${glob_coulcut}
pair_coeff		1 1 	1 	1	2.5 	${glob_coulcut}
pair_coeff		1 1 	1 	1	2.5 	10
pair_coeff		1 2 	${glob_ljeps} 	${glob_ljsig}	${att_ljcut} 	${glob_coulcut}
pair_coeff		1 2 	1 	${glob_ljsig}	${att_ljcut} 	${glob_coulcut}
pair_coeff		1 2 	1 	1	${att_ljcut} 	${glob_coulcut}
pair_coeff		1 2 	1 	1	2.5 	${glob_coulcut}
pair_coeff		1 2 	1 	1	2.5 	10
pair_coeff		1 3 	${glob_ljeps} 	${glob_ljsig}	${rep_ljcut} 	${glob_coulcut}
pair_coeff		1 3 	1 	${glob_ljsig}	${rep_ljcut} 	${glob_coulcut}
pair_coeff		1 3 	1 	1	${rep_ljcut} 	${glob_coulcut}
pair_coeff		1 3 	1 	1	1.12 	${glob_coulcut}
pair_coeff		1 3 	1 	1	1.12 	10
pair_coeff		1 4 	${glob_ljeps} 	${glob_ljsig}	${rep_ljcut} 	${glob_coulcut}
pair_coeff		1 4 	1 	${glob_ljsig}	${rep_ljcut} 	${glob_coulcut}
pair_coeff		1 4 	1 	1	${rep_ljcut} 	${glob_coulcut}
pair_coeff		1 4 	1 	1	1.12 	${glob_coulcut}
pair_coeff		1 4 	1 	1	1.12 	10
pair_coeff		2 2 	${glob_ljeps} 	${glob_ljsig}	${att_ljcut} 	${glob_coulcut}
pair_coeff		2 2 	1 	${glob_ljsig}	${att_ljcut} 	${glob_coulcut}
pair_coeff		2 2 	1 	1	${att_ljcut} 	${glob_coulcut}
pair_coeff		2 2 	1 	1	2.5 	${glob_coulcut}
pair_coeff		2 2 	1 	1	2.5 	10
pair_coeff		2 3 	${glob_ljeps} 	${glob_ljsig}	${rep_ljcut} 	${glob_coulcut}
pair_coeff		2 3 	1 	${glob_ljsig}	${rep_ljcut} 	${glob_coulcut}
pair_coeff		2 3 	1 	1	${rep_ljcut} 	${glob_coulcut}
pair_coeff		2 3 	1 	1	1.12 	${glob_coulcut}
pair_coeff		2 3 	1 	1	1.12 	10
pair_coeff		2 4 	${glob_ljeps} 	${glob_ljsig}	${att_ljcut} 	${glob_coulcut}
pair_coeff		2 4 	1 	${glob_ljsig}	${att_ljcut} 	${glob_coulcut}
pair_coeff		2 4 	1 	1	${att_ljcut} 	${glob_coulcut}
pair_coeff		2 4 	1 	1	2.5 	${glob_coulcut}
pair_coeff		2 4 	1 	1	2.5 	10
pair_coeff		3 3 	${glob_ljeps} 	${glob_ljsig}	${rep_ljcut} 	${glob_coulcut}
pair_coeff		3 3 	1 	${glob_ljsig}	${rep_ljcut} 	${glob_coulcut}
pair_coeff		3 3 	1 	1	${rep_ljcut} 	${glob_coulcut}
pair_coeff		3 3 	1 	1	1.12 	${glob_coulcut}
pair_coeff		3 3 	1 	1	1.12 	10
pair_coeff		3 4 	${glob_ljeps} 	${glob_ljsig}	${att_ljcut} 	${glob_coulcut}
pair_coeff		3 4 	1 	${glob_ljsig}	${att_ljcut} 	${glob_coulcut}
pair_coeff		3 4 	1 	1	${att_ljcut} 	${glob_coulcut}
pair_coeff		3 4 	1 	1	2.5 	${glob_coulcut}
pair_coeff		3 4 	1 	1	2.5 	10
pair_coeff		4 4 	${glob_ljeps} 	${glob_ljsig}	${rep_ljcut} 	${glob_coulcut}
pair_coeff		4 4 	1 	${glob_ljsig}	${rep_ljcut} 	${glob_coulcut}
pair_coeff		4 4 	1 	1	${rep_ljcut} 	${glob_coulcut}
pair_coeff		4 4 	1 	1	1.12 	${glob_coulcut}
pair_coeff		4 4 	1 	1	1.12 	10


fix             noDriftRot 	all momentum 10 linear 1 1 1 angular
fix             nvt1 		all nvt temp ${Temp} ${Temp} 0.5
fix             nvt1 		all nvt temp 1 ${Temp} 0.5
fix             nvt1 		all nvt temp 1 1 0.5

# dump          assemble 	all custom 1000 				${outputfile_selfasb} id type xu yu zu vx vy vz
dump            lindump 	all custom ${subsample_rate} 	${outputfile_trajlin} id type xu yu zu vx vy vz
dump            lindump 	all custom 1000 	${outputfile_trajlin} id type xu yu zu vx vy vz
dump            lindump 	all custom 1000 	6_b_trajlin.data id type xu yu zu vx vy vz

run             ${runtime}
run             1000000
Generated 0 of 6 mixed pair_coeff terms from geometric mixing rule
Neighbor list info ...
  update every 1 steps, delay 10 steps, check yes
  max neighbors/atom: 2000, page size: 100000
  master list distance cutoff = 10.3
  ghost atom cutoff = 10.3
  binsize = 5.15, bins = 7 7 7
  1 neighbor lists, perpetual/occasional/extra = 1 0 0
  (1) pair lj/cut/coul/cut, perpetual
      attributes: half, newton on
      pair build: half/bin/newton
      stencil: half/bin/3d
      bin: standard
Per MPI rank memory allocation (min/avg/max) = 7.712 | 7.712 | 7.712 Mbytes
   Step          Temp         Density         Press          TotEng         PotEng         KinEng         E_pair         S/CPU     
         0   1.1904942      0.0023323615  -0.0014574599   21.887815      20.119931      1.7678839     -0.42840332     0            
      1000   0.9667637      0.0023323615   0.0011169671   21.098452      19.662808      1.4356441     -0.80063657     33377.005    
      2000   0.93418698     0.0023323615  -0.0036598832   20.895023      19.507755      1.3872677     -0.95841429     30854.485    
      3000   1.0436972      0.0023323615  -0.0015391449   20.716913      19.167023      1.5498903     -1.3103255      26262.733    
      4000   0.97082984     0.0023323615  -0.0029018832   20.36434       18.922658      1.4416823     -1.4933587      20049.835    
      5000   1.2099709      0.0023323615  -0.0017434829   21.001673      19.204866      1.7968068     -1.3197734      18471.791    
      6000   1.0426611      0.0023323615   0.0019788645   20.670357      19.122005      1.5483518     -1.3021128      18572.609    
      7000   0.8797914      0.0023323615   0.0031938939   20.411794      19.105303      1.3064902     -1.3360716      18385.239    
      8000   1.0479027      0.0023323615   0.00021174839  20.539296      18.98316       1.5561355     -1.6012496      18258.135    
      9000   1.0757557      0.0023323615  -0.0050983511   20.671841      19.074344      1.5974972     -1.4278378      18337.873    
     10000   1.0353852      0.0023323615   0.00036644018  20.813313      19.275766      1.5375471     -1.3796644      18316.31     
     11000   1.0713883      0.0023323615   7.8516343e-05  20.653971      19.06296       1.5910116     -1.4595949      18323.354    
     12000   1.0503211      0.0023323615  -0.0018100991   20.828083      19.268357      1.5597268     -1.3128612      18391.283    
     13000   0.83537914     0.0023323615   0.0012153192   20.409108      19.16857       1.240538      -1.3591851      18376.06     
     14000   1.2151042      0.0023323615   0.0018018674   20.991187      19.186757      1.8044297     -1.2545901      18429.952    
     15000   1.0685987      0.0023323615  -0.0013808514   20.543233      18.956364      1.5868691     -1.5208421      18257.664    
     16000   1.1429191      0.0023323615  -0.0010017783   20.858148      19.160913      1.6972349     -1.4472873      18399.484    
     17000   1.0415302      0.0023323615  -0.0018314854   20.846492      19.299819      1.5466723     -1.2081869      18579.364    
     18000   1.0883788      0.0023323615   0.0013692526   20.883311      19.267069      1.6162425     -1.3760565      18588.661    
     19000   1.2171999      0.0023323615  -0.0018911007   20.746771      18.939229      1.8075419     -1.4777595      18412.538    
     20000   1.0076535      0.0023323615  -0.0037662311   20.405103      18.908737      1.4963654     -1.6467793      18490.458    
     21000   1.2040182      0.0023323615  -0.0012698051   20.72204       18.934073      1.7879671     -1.6614502      18518.881    
     22000   1.0342753      0.0023323615   0.0018602512   20.540027      19.004128      1.5358988     -1.530877       18491.441    
     23000   0.98312634     0.0023323615   0.005916032    20.637772      19.17783       1.4599426     -1.3808892      18439.546    
     24000   0.96870143     0.0023323615  -0.0017198976   20.521865      19.083343      1.4385216     -1.3871016      18438.783    
     25000   1.0639845      0.0023323615  -0.0026198985   20.891882      19.311865      1.580017      -1.1713035      18403.399    
     26000   1.0161023      0.0023323615   0.0030611248   20.494988      18.986077      1.5089119     -1.6144448      18298.113    
     27000   0.87258416     0.0023323615   0.0018011323   20.607557      19.311769      1.2957875     -1.2162285      18562.561    
     28000   1.1330606      0.0023323615   0.0014172224   20.857183      19.174588      1.682595      -1.3691362      18380.229    
     29000   0.99162031     0.0023323615  -0.00021308753  20.51237       19.039814      1.4725562     -1.5801979      18313.839    
     30000   1.08809        0.0023323615   0.00082059308  20.481308      18.865495      1.6158136     -1.5655652      18089.725    
     31000   0.82622688     0.0023323615  -0.0017968622   20.165983      18.939036      1.2269469     -1.3641882      18298.915    
     32000   1.0541776      0.0023323615  -0.002990825    20.911467      19.346013      1.5654537     -1.1861211      18390.812    
     33000   1.085138       0.0023323615  -0.0017739632   20.509419      18.897989      1.6114299     -1.6726783      18351.086    
     34000   1.1084466      0.0023323615  -0.0007484141   20.697267      19.051223      1.6460432     -1.4688666      18384.508    
     35000   1.0024897      0.0023323615   0.0015854358   20.502608      19.013911      1.4886973     -1.4678574      18433.75     
     36000   1.1094071      0.0023323615   0.005171725    20.488108      18.840638      1.6474695     -1.6598454      18326.57     
     37000   0.91136068     0.0023323615  -0.00046504188  20.464699      19.111328      1.3533706     -1.3961041      18340.515    
     38000   0.97430742     0.0023323615  -0.0027228409   20.420633      18.973786      1.4468465     -1.5074138      18430.068    
     39000   1.1746142      0.0023323615  -0.00059318855  20.870512      19.12621       1.7443021     -1.3552252      18559.203    
     40000   1.0029643      0.0023323615   0.0031862199   20.543303      19.053901      1.4894021     -1.3763666      18574.945    
     41000   1.0031739      0.0023323615  -0.00054787542  20.434292      18.944579      1.4897133     -1.5869859      18290.596    
     42000   0.88430766     0.0023323615  -0.0010070603   20.275987      18.962791      1.3131969     -1.597999       18172.309    
     43000   0.95230748     0.0023323615  -0.00039661456  20.441209      19.027032      1.4141766     -1.525905       18222.256    
     44000   0.91663107     0.0023323615   0.002721631    20.350477      18.98928       1.3611971     -1.42559        18260.506    
     45000   0.99287591     0.0023323615  -0.0016024767   20.272792      18.798372      1.4744207     -1.5961348      18480.536    
     46000   0.99057055     0.0023323615   0.0027103412   20.439297      18.968299      1.4709973     -1.4717823      18458.322    
     47000   1.1180027      0.0023323615  -0.0010190475   20.816234      19.156         1.660234      -1.520185       18371.626    
     48000   0.97931244     0.0023323615   0.0016673598   20.397453      18.943174      1.454279      -1.5189411      18363.129    
     49000   0.93230393     0.0023323615  -0.0002309708   20.518754      19.134282      1.3844713     -1.4155417      18492.139    
     50000   1.0005102      0.0023323615   0.0025909142   20.41956       18.933802      1.4857576     -1.5381601      18414.284    
     51000   0.89565611     0.0023323615  -0.00096407427  20.359534      19.029485      1.3300493     -1.5514081      18252.359    
     52000   1.0048775      0.0023323615  -0.001003686    20.47164       18.979396      1.4922431     -1.4854187      18305.093    
     53000   0.96201546     0.0023323615  -0.0010910546   20.56911       19.140517      1.428593      -1.4296238      18262.768    
     54000   0.8885347      0.0023323615   0.0011592451   20.242909      18.923435      1.319474      -1.7106113      18293.663    
     55000   0.96247191     0.0023323615  -0.00075906651  20.603753      19.174483      1.4292708     -1.4224184      18361.875    
     56000   1.2321541      0.0023323615   0.0018735154   20.923875      19.094126      1.8297488     -1.3882565      18383.218    
     57000   0.98920624     0.0023323615  -0.0014740453   20.734175      19.265204      1.4689713     -1.3726252      18445.37     
     58000   0.91500526     0.0023323615  -0.0026363883   20.635312      19.276529      1.3587828     -1.3081217      18343.835    
     59000   0.9452761      0.0023323615   0.0021355859   20.41326       19.009525      1.403735      -1.4183298      18344.074    
     60000   1.0183872      0.0023323615   0.00049497031  20.760076      19.247771      1.512305      -1.3889561      18377.491    
     61000   0.96463349     0.0023323615   0.0014657246   20.452275      19.019794      1.4324807     -1.4816596      18261.532    
     62000   0.91777279     0.0023323615  -0.0014885746   20.292405      18.929512      1.3628926     -1.6546538      18282.023    
     63000   1.0504145      0.0023323615  -0.0026949331   20.738956      19.179091      1.5598655     -1.3508626      18254.098    
     64000   0.89326954     0.0023323615  -0.0015431051   20.258082      18.931577      1.3265053     -1.4820062      18356.54     
     65000   0.88101        0.0023323615   0.0003544685   20.675228      19.366928      1.3082999     -1.2108963      18365.348    
     66000   1.0467189      0.0023323615   0.0029130612   20.555442      19.001065      1.5543775     -1.4747416      18459.722    
     67000   0.90878673     0.0023323615  -0.0038103376   20.48291       19.133362      1.3495483     -1.3859854      18507.443    
     68000   1.1005743      0.0023323615  -0.00042842719  20.578579      18.944226      1.6343529     -1.5416073      18294.702    
     69000   1.0487553      0.0023323615  -0.00078072872  20.4916        18.934198      1.5574016     -1.5480255      18275.02     
     70000   1.0171676      0.0023323615  -0.0015851515   20.86593       19.355436      1.5104938     -1.147357       18490.752    
     71000   1.0537193      0.0023323615   0.00089500959  20.732832      19.168058      1.5647732     -1.3052087      18834.391    
     72000   1.1381023      0.0023323615   0.0031722682   20.608119      18.918037      1.6900818     -1.5694159      18477.687    
     73000   1.0121621      0.0023323615  -0.00031642464  20.496813      18.993752      1.5030608     -1.3920191      18330.589    
     74000   1.0632548      0.0023323615   0.00011367143  20.411585      18.832652      1.5789333     -1.6561878      18188.187    
     75000   1.0164192      0.0023323615   0.0027001674   20.549183      19.0398        1.5093824     -1.4591168      18302.455    
     76000   0.90080403     0.0023323615  -0.0011328661   20.486575      19.148881      1.337694      -1.3944358      18348.944    
     77000   1.0489918      0.0023323615  -0.0022606225   20.463833      18.90608       1.5577528     -1.5861245      18297.637    
     78000   1.0933296      0.0023323615   0.0009522764   20.849375      19.225781      1.6235945     -1.2542133      18245.289    
     79000   0.99699045     0.0023323615   0.0032300503   20.406908      18.926377      1.4805308     -1.6056769      18295.001    
     80000   0.93751781     0.0023323615  -0.00128863     20.415759      19.023545      1.3922139     -1.5470273      18266.605    
     81000   0.99897162     0.0023323615   0.00011774462  20.53008       19.046607      1.4834729     -1.4526955      18403.745    
     82000   0.86810901     0.0023323615   0.0013362769   20.349216      19.060074      1.2891419     -1.5402613      18351.238    
     83000   1.0567637      0.0023323615   0.00069434171  20.584228      19.014934      1.5692941     -1.4746274      18244.105    
     84000   1.1406301      0.0023323615  -0.0036756106   20.552344      18.858509      1.6938358     -1.5981296      18239.011    
     85000   0.96457621     0.0023323615  -0.0029205858   20.581289      19.148894      1.4323957     -1.3035604      18357.897    
     86000   0.9679312      0.0023323615   0.00043948863  20.561366      19.123988      1.4373778     -1.4441387      18373.134    
     87000   1.0003342      0.0023323615  -0.0014992396   20.394943      18.909447      1.4854962     -1.5574083      18401.364    
     88000   1.0650436      0.0023323615  -0.0011100655   20.724982      19.143392      1.5815898     -1.3800459      18381.468    
     89000   1.0489238      0.0023323615   0.0038185649   20.570975      19.013323      1.5576518     -1.4484897      18289.775    
     90000   1.0407853      0.0023323615   0.0013117152   20.696274      19.150707      1.5455662     -1.5180807      18350.87     
     91000   0.999848       0.0023323615  -0.0023879052   20.690251      19.205477      1.4847743     -1.2870937      18582.01     
     92000   1.060886       0.0023323615  -0.0020831672   20.992173      19.416757      1.5754157     -1.372074       18582.114    
     93000   0.96821816     0.0023323615  -0.0042738072   20.358993      18.921189      1.437804      -1.5071119      18467.113    
     94000   0.9169005      0.0023323615   0.001404642    20.287241      18.925644      1.3615972     -1.5991996      18528.905    
     95000   0.9602368      0.0023323615   0.0036821259   20.242537      18.816585      1.4259517     -1.692382       18363.223    
     96000   0.91468377     0.0023323615  -0.00170852     20.509588      19.151282      1.3583054     -1.5202551      18382.497    
     97000   0.93167929     0.0023323615  -0.0043323804   20.403236      19.019692      1.3835437     -1.4293704      18115.35     
     98000   0.93426256     0.0023323615  -0.0016659159   20.294186      18.906806      1.3873799     -1.6908427      18205.315    
     99000   0.9648746      0.0023323615  -0.00015006135  20.359005      18.926166      1.4328388     -1.5455217      18231.875    
    100000   0.90068406     0.0023323615  -0.0024518511   20.550389      19.212874      1.3375158     -1.3390268      18341.253    
    101000   0.93522118     0.0023323615  -0.0026886548   20.58422       19.195417      1.3888035     -1.4193875      18379.975    
    102000   1.0893079      0.0023323615   0.00092315733  20.600549      18.982927      1.6176223     -1.4955405      18487.03     
    103000   0.86401982     0.0023323615   0.0047899507   20.131522      18.848453      1.2830694     -1.5752148      18371.457    
    104000   1.0345272      0.0023323615  -0.00021639937  20.497024      18.960751      1.5362729     -1.4304065      18348.128    
    105000   0.97277718     0.0023323615  -0.00018229051  20.475369      19.030794      1.4445741     -1.4906285      18416.608    
    106000   0.94714337     0.0023323615  -0.00064799981  20.658182      19.251674      1.4065079     -1.4088692      18469.433    
    107000   0.88160404     0.0023323615  -0.00047539245  20.127415      18.818233      1.309182      -1.7078199      18409.567    
    108000   0.92178608     0.0023323615   0.00039977432  20.379853      19.011001      1.3688523     -1.473348       18449.789    
    109000   0.88888797     0.0023323615   0.0040687472   20.370298      19.0503        1.3199986     -1.4181206      18315.039    
    110000   0.95476928     0.0023323615  -0.0015713581   20.580389      19.162557      1.4178324     -1.3001918      18412.823    
    111000   1.1276259      0.0023323615   0.0032736862   20.972834      19.29831       1.6745244     -1.1432139      18650.888    
    112000   1.0195204      0.0023323615  -0.0034356118   20.565127      19.051139      1.5139878     -1.3911715      18615.123    
    113000   1.0569262      0.0023323615   0.0017798407   20.514455      18.94492       1.5695354     -1.4843956      18475.357    
    114000   0.99308613     0.0023323615  -0.0015081527   20.831249      19.356517      1.4747329     -1.1316768      18526.494    
    115000   0.89721081     0.0023323615  -0.0025126541   20.44015       19.107792      1.3323581     -1.3030034      18567.34     
    116000   0.98746734     0.0023323615  -0.0026740053   20.616669      19.15028       1.466389      -1.4096575      18572.305    
    117000   0.92821463     0.0023323615   0.0017420563   20.688728      19.31033       1.3783987     -1.3669951      18446.457    
    118000   1.1535561      0.0023323615  -0.0019395085   20.61849       18.905459      1.7130307     -1.6112744      18522.737    
    119000   0.93397725     0.0023323615   0.0015906696   20.337468      18.950512      1.3869562     -1.6060559      18369.168    
    120000   0.99994493     0.0023323615  -0.0017254673   20.792851      19.307933      1.4849182     -1.2989435      18422.9      
    121000   0.87651001     0.0023323615  -0.0022623168   20.650265      19.348648      1.3016174     -1.3068028      18482.812    
    122000   1.084876       0.0023323615  -0.0017873828   20.985306      19.374265      1.6110408     -1.2274152      18319.389    
    123000   1.088197       0.0023323615  -0.0011811602   20.987154      19.371181      1.6159726     -1.0648914      19327.291    
    124000   0.97089915     0.0023323615   0.0041002507   20.819384      19.377599      1.4417852     -1.0850724      20038.223    
    125000   1.0078794      0.0023323615  -0.0057234795   21.105478      19.608778      1.4967009     -0.9815365      19656.743    
    126000   1.0219858      0.0023323615   0.0038007311   20.641317      19.123668      1.5176489     -1.3178683      18760.997    
    127000   0.97739433     0.0023323615   0.00044414228  20.544703      19.093272      1.4514306     -1.4673331      18348.161    
    128000   0.99995946     0.0023323615  -0.0027698508   20.478911      18.993972      1.4849398     -1.5529912      18314.041    
    129000   1.2000026      0.0023323615   0.0032875725   20.818648      19.036644      1.7820038     -1.4503597      18304.724    
    130000   0.96793507     0.0023323615  -0.0032364879   20.625642      19.188259      1.4373836     -1.2944294      18396.758    
    131000   0.99412123     0.0023323615   0.0021815695   20.663612      19.187342      1.47627       -1.3648238      18432.617    
    132000   1.0213876      0.0023323615   0.00064485622  20.658239      19.141479      1.5167605     -1.4680263      18245.793    
    133000   1.0019224      0.0023323615   0.0010620605   20.414848      18.926994      1.4878548     -1.590944       18455.585    
    134000   1.0476489      0.0023323615  -0.00045464084  20.386102      18.830344      1.5557586     -1.6382128      18365.47     
    135000   0.91588662     0.0023323615  -0.0011787297   20.19624       18.836148      1.3600916     -1.6443954      18538.466    
    136000   0.95066174     0.0023323615   0.0093918177   20.48645       19.074718      1.4117327     -1.4101591      18444.04     
    137000   0.86654496     0.0023323615   0.00043853615  20.321787      19.034967      1.2868193     -1.5022632      18277.979    
    138000   1.0897411      0.0023323615  -0.001414533    20.857463      19.239197      1.6182656     -1.4349951      18345.16     
    139000   1.0334438      0.0023323615  -0.0011217345   20.487         18.952336      1.5346641     -1.5055771      18340.249    
    140000   0.90992747     0.0023323615   0.00059105282  20.542641      19.191398      1.3512423     -1.2917507      18527.608    
    141000   1.0070397      0.0023323615  -0.0015525367   20.294642      18.799188      1.4954539     -1.545082       18400.434    
    142000   1.0037144      0.0023323615  -0.0020180825   20.657573      19.167057      1.4905159     -1.3853874      18335.592    
    143000   0.9347766      0.0023323615  -0.00026873053  20.450156      19.062012      1.3881433     -1.4430085      18363.852    
    144000   1.1793896      0.0023323615  -0.00091988275  21.116466      19.365073      1.7513936     -1.1283945      18530.24     
    145000   1.0189246      0.0023323615  -0.0010089559   20.704581      19.191478      1.5131031     -1.3344049      18406.592    
    146000   1.0404154      0.0023323615  -0.00274764     20.800776      19.255759      1.5450168     -1.2316026      18373.388    
    147000   0.99963234     0.0023323615   0.0003291164   20.534064      19.04961       1.484454      -1.500166       18440.449    
    148000   0.95977418     0.0023323615   0.00069287351  20.259112      18.833847      1.4252647     -1.6041302      18305.087    
    149000   1.1077861      0.0023323615  -0.002033208    20.472157      18.827095      1.6450624     -1.653406       18345.069    
    150000   0.86826151     0.0023323615   0.0060373726   20.208095      18.918726      1.2893683     -1.5171104      18260.283    
    151000   1.0068576      0.0023323615   0.001544022    20.594003      19.098819      1.4951836     -1.2574843      18343.879    
    152000   0.97384296     0.0023323615   0.0040356727   20.889012      19.442855      1.4461568     -1.2450771      18351.295    
    153000   0.97577588     0.0023323615  -0.0024351257   20.523759      19.074732      1.4490272     -1.4268693      18460.63     
    154000   0.91853333     0.0023323615   0.00025707899  20.223244      18.859222      1.364022      -1.6577655      18474.29     
    155000   0.97662164     0.0023323615   0.0023137067   20.505848      19.055565      1.4502831     -1.3691158      18548.249    
    156000   1.0711158      0.0023323615   0.00055284568  20.471628      18.881021      1.590607      -1.5859283      18443.175    
    157000   0.99999469     0.0023323615  -0.0021560248   20.489439      19.004447      1.4849921     -1.453494       18314.266    
    158000   1.0092766      0.0023323615   0.0017194808   20.517311      19.018535      1.4987758     -1.4743688      18408.915    
    159000   0.9193585      0.0023323615   0.00071096721  20.137569      18.772322      1.3652474     -1.6042572      18239.521    
    160000   0.96870075     0.0023323615   0.0009243175   20.43058       18.99206       1.4385206     -1.5181176      18305.523    
    161000   0.94527427     0.0023323615  -0.0022786889   20.52959       19.125858      1.4037323     -1.3794601      18299.126    
    162000   0.89797143     0.0023323615   0.0010989876   20.45616       19.122672      1.3334876     -1.4511493      18384.349    
    163000   0.91497371     0.0023323615  -0.00039821633  20.438308      19.079572      1.358736      -1.5057295      18288.152    
    164000   0.98293566     0.0023323615   0.00075673026  20.457907      18.998247      1.4596595     -1.6449689      18311.215    
    165000   0.96777173     0.0023323615   0.0032218579   20.617551      19.18041       1.437141      -1.4079122      18316.437    
    166000   0.94739746     0.0023323615  -0.0021390609   20.877413      19.470527      1.4068852     -1.0676801      18894.536    
    167000   0.99543155     0.0023323615  -0.0042410826   20.60173       19.123514      1.4782159     -1.4634288      18734.196    
    168000   1.0484558      0.0023323615   0.0053382768   20.774148      19.217191      1.5569569     -1.3158582      18328.135    
    169000   1.0258179      0.0023323615   0.0021660257   20.507171      18.983832      1.5233396     -1.4809904      18334.292    
    170000   0.99362708     0.0023323615   0.002835442    20.38171       18.906174      1.4755362     -1.6945744      18189.543    
    171000   1.1592891      0.0023323615   0.00082007392  21.009703      19.288159      1.7215443     -1.3455152      18154.705    
    172000   1.1403751      0.0023323615  -0.00040863821  20.648335      18.954878      1.693457      -1.5299182      18183.469    
    173000   0.89946025     0.0023323615   0.0010099586   20.589507      19.253808      1.3356985     -1.2451717      18310.187    
    174000   1.0247879      0.0023323615   0.0027979452   20.795083      19.273273      1.52181       -1.2287935      18447.961    
    175000   0.92754137     0.0023323615   0.004658707    20.583283      19.205884      1.3773989     -1.296603       18501.998    
    176000   0.99392766     0.0023323615   0.0036810502   20.474126      18.998144      1.4759826     -1.4749144      18608.901    
    177000   1.0425992      0.0023323615  -0.0013815698   20.254822      18.706562      1.5482599     -1.6417632      18663.453    
    178000   1.0975027      0.0023323615   0.0015700231   20.903595      19.273803      1.6297915     -1.3586116      18362.115    
    179000   0.9828195      0.0023323615   0.0036704874   20.297419      18.837932      1.459487      -1.7339199      18362.457    
    180000   1.0981316      0.0023323615  -0.001604404    20.677882      19.047156      1.6307255     -1.3757851      18395.686    
    181000   1.0793421      0.0023323615  -0.0038641738   20.848133      19.24531       1.602823      -1.326265       18577.472    
    182000   0.98074353     0.0023323615  -0.0031061753   20.662533      19.206129      1.4564041     -1.3532957      18545.864    
    183000   1.0458088      0.0023323615  -0.0028525279   20.823214      19.270188      1.5530261     -1.3382323      18402.625    
    184000   1.0503986      0.0023323615   0.0016784594   20.778344      19.218502      1.5598419     -1.3163024      18588.987    
    185000   1.1172155      0.0023323615   0.0025917041   20.700321      19.041256      1.659065      -1.3260601      18605.796    
    186000   1.0603572      0.0023323615  -0.0004175599   20.653756      19.079126      1.5746304     -1.3408692      18531.688    
    187000   0.94088588     0.0023323615  -0.0011863236   20.458547      19.061331      1.3972155     -1.4529033      18337.132    
    188000   0.93604296     0.0023323615   0.002718669    20.392202      19.002179      1.3900238     -1.5235266      18467.549    
    189000   0.99478176     0.0023323615  -0.0056083233   20.457727      18.980476      1.4772509     -1.4117752      18525.769    
    190000   1.0921964      0.0023323615  -0.0013781127   20.983574      19.361663      1.6219116     -1.2896058      18621.618    
    191000   0.94830619     0.0023323615   0.0025368349   20.524551      19.116316      1.4082347     -1.3886321      18314.773    
    192000   0.95947938     0.0023323615   0.0017808978   20.486774      19.061947      1.4248269     -1.4265902      18279.414    
    193000   1.0381092      0.0023323615  -0.0015764051   20.430325      18.888732      1.5415922     -1.5997297      18045.651    
    194000   0.95010512     0.0023323615  -0.00046424824  20.481806      19.0709        1.4109061     -1.4979438      18207.905    
    195000   0.95729498     0.0023323615   0.00057200402  20.236572      18.814989      1.421583      -1.6502458      18441.468    
    196000   0.97045539     0.0023323615  -0.00069128723  20.376158      18.935032      1.4411263     -1.5791957      18377.214    
    197000   0.98774072     0.0023323615  -0.0016345478   20.345046      18.878251      1.466795      -1.5940965      18353.175    
    198000   0.93473188     0.0023323615  -0.00100138     20.460813      19.072736      1.3880768     -1.4243468      18444.576    
    199000   0.82904053     0.0023323615   0.00026242277  20.199254      18.968128      1.2311252     -1.5408699      18395.235    
    200000   1.1346586      0.0023323615   0.0023217623   20.747069      19.062101      1.684968      -1.4633711      18386.368    
    201000   1.1248624      0.0023323615   0.0016423175   20.954893      19.284473      1.6704206     -1.3077716      18359.785    
    202000   1.1531031      0.0023323615  -0.00064382539  20.62081       18.908452      1.7123582     -1.6205154      18430.098    
    203000   1.1615813      0.0023323615  -0.0013845587   20.690712      18.965764      1.7249482     -1.4616824      18441.533    
    204000   0.93599938     0.0023323615   0.0058341746   20.655673      19.265714      1.3899591     -1.2859019      18603.525    
    205000   0.9804497      0.0023323615   0.0035673122   20.617275      19.161308      1.4559678     -1.4340958      18423.924    
    206000   0.94110792     0.0023323615   0.0040538936   20.324694      18.927148      1.3975453     -1.6380084      18313.604    
    207000   1.004327       0.0023323615   0.0039627639   20.67358       19.182155      1.4914256     -1.3831078      18375.492    
    208000   1.0728917      0.0023323615   0.0066469177   20.579116      18.985872      1.5932441     -1.4952576      18361.102    
    209000   1.0020029      0.0023323615   0.00081061643  20.623837      19.135863      1.4879742     -1.4443603      18279.927    
    210000   1.0695415      0.0023323615   0.0038457777   20.626539      19.03827       1.5882691     -1.5472232      18226.794    
    211000   0.89211323     0.0023323615  -0.0021487446   20.502998      19.17821       1.3247881     -1.45801        18260.64     
    212000   1.0079931      0.0023323615   0.0019514965   20.714819      19.217949      1.4968698     -1.4157009      18348.286    
    213000   0.96232431     0.0023323615   0.0027034988   20.467862      19.03881       1.4290516     -1.4786582      18268.361    
    214000   0.97354804     0.0023323615  -0.00087532555  20.666493      19.220774      1.4457188     -1.3215963      18375.543    
    215000   0.94647854     0.0023323615   0.0019860041   20.738808      19.333288      1.4055206     -1.3195792      18367.258    
    216000   1.1333687      0.0023323615  -0.00032513215  20.715785      19.032733      1.6830526     -1.5431208      18390.019    
    217000   1.0588157      0.0023323615   0.0040789135   20.605027      19.032685      1.5723413     -1.4657637      18185.128    
    218000   0.99610413     0.0023323615   0.0027607113   20.668579      19.189364      1.4792146     -1.3852006      18194.865    
    219000   0.99341118     0.0023323615   0.00082392797  20.74702       19.271804      1.4752156     -1.3429396      18462.395    
    220000   0.95707858     0.0023323615   0.00029944558  20.46163       19.040368      1.4212617     -1.4256752      18335.246    
    221000   1.0219763      0.0023323615  -0.00096861203  20.657323      19.139689      1.5176348     -1.3995139      18380.463    
    222000   1.0725117      0.0023323615   0.0018997826   20.562738      18.970058      1.5926799     -1.4545474      18394.659    
    223000   0.95982954     0.0023323615  -0.0026059972   20.456526      19.031179      1.4253469     -1.4761682      18350.506    
    224000   0.91502105     0.0023323615  -0.00067623145  20.418609      19.059803      1.3588063     -1.5586646      18316.296    
    225000   1.0050807      0.0023323615  -0.0029197406   20.278068      18.785523      1.4925449     -1.6106795      18339.072    
    226000   1.0441444      0.0023323615  -2.1541127e-06  20.349316      18.798761      1.5505545     -1.6662221      18397.49     
    227000   0.9448166      0.0023323615  -0.0013352251   20.55662       19.153568      1.4030526     -1.3451298      18476.021    
    228000   0.99009339     0.0023323615  -0.0053545267   20.734514      19.264225      1.4702887     -1.3190331      18524.851    
    229000   1.1389886      0.0023323615   0.0030983948   20.645811      18.954413      1.691398      -1.5505971      18349.369    
    230000   1.0327484      0.0023323615  -0.0012296073   20.727104      19.193472      1.5336314     -1.2767578      18338.594    
    231000   0.87218738     0.0023323615   0.0017638139   20.390899      19.0957        1.2951983     -1.4067606      18359.565    
    232000   1.0281262      0.0023323615  -0.00076820624  20.637676      19.110908      1.5267674     -1.4221793      18472.879    
    233000   1.0011017      0.0023323615   0.0023020681   20.300298      18.813661      1.486636      -1.664336       18360.794    
    234000   1.0252712      0.0023323615  -0.0020057221   20.388216      18.865688      1.5225278     -1.6565677      18243.725    
    235000   0.89427623     0.0023323615   0.0030796132   20.448032      19.120032      1.3280002     -1.3443574      18233.417    
    236000   0.94791019     0.0023323615  -8.0160744e-05  20.394241      18.986594      1.4076466     -1.5708572      18598.505    
    237000   0.97931052     0.0023323615  -3.1075626e-05  20.573749      19.119473      1.4542761     -1.3667862      18412.749    
    238000   1.0031226      0.0023323615  -0.00083925713  20.678785      19.189148      1.4896371     -1.360933       18320.714    
    239000   1.0049989      0.0023323615   0.0023631039   20.642669      19.150246      1.4924233     -1.3492722      18379.058    
    240000   1.0267187      0.0023323615   0.0023191126   20.53956       19.014883      1.5246773     -1.4452149      18381.031    
    241000   1.2713268      0.0023323615  -0.00078805695  20.785516      18.897596      1.8879204     -1.5084484      18433.434    
    242000   1.0383354      0.0023323615   0.0001016352   20.574497      19.032569      1.541928      -1.4270926      18454.923    
    243000   0.93413799     0.0023323615  -0.0025864812   20.450628      19.063433      1.3871949     -1.4421026      18501.381    
    244000   0.92325391     0.0023323615  -0.0026700557   20.560279      19.189246      1.371032      -1.4478109      18290.314    
    245000   0.9751893      0.0023323615  -0.0029536444   20.564763      19.116607      1.4481561     -1.4897182      18319.237    
    246000   1.1346699      0.0023323615  -0.00055542244  21.068739      19.383754      1.6849848     -1.2351596      18303.556    
    247000   1.1085544      0.0023323615  -0.00091903595  20.629265      18.983062      1.6462033     -1.4406366      18421.033    
    248000   0.88796833     0.0023323615  -6.0997052e-05  20.147965      18.829332      1.318633      -1.6475594      18357.583    
    249000   1.0442172      0.0023323615  -0.0010442523   20.525939      18.975277      1.5506625     -1.5533393      18229.337    
    250000   0.94139433     0.0023323615  -0.0019180529   20.428347      19.030377      1.3979706     -1.5747262      18430.973    
    251000   1.0003535      0.0023323615   0.00029081971  20.631615      19.14609       1.4855249     -1.4620663      18389.108    
    252000   0.9012178      0.0023323615  -0.00053197447  20.335808      18.9975        1.3383084     -1.4771369      18271.738    
    253000   0.93318679     0.0023323615  -0.0027425945   20.467836      19.082054      1.3857824     -1.5804093      18356.59     
    254000   0.94512823     0.0023323615   0.00089518975  20.380978      18.977463      1.4035154     -1.5079412      18343.98     
    255000   0.97670325     0.0023323615  -0.0020871914   20.516961      19.066557      1.4504043     -1.3600412      18371.119    
    256000   1.0009142      0.0023323615   4.3712106e-05  20.5763        19.089942      1.4863576     -1.3743285      18421.105    
    257000   0.93376574     0.0023323615  -0.0018165624   20.431493      19.044851      1.3866421     -1.4756737      18256.539    
    258000   1.0278753      0.0023323615  -0.0014402435   20.520045      18.99365       1.5263949     -1.625365       18341.377    
    259000   0.8404217      0.0023323615   0.00070456491  20.212363      18.964337      1.2480262     -1.5981002      18294.555    
    260000   0.9786456      0.0023323615   0.00082404389  20.1916        18.738311      1.4532887     -1.6731871      18434.404    
    261000   0.9391993      0.0023323615  -3.7458262e-05  20.486722      19.092011      1.394711      -1.4596458      18500.085    
    262000   0.95004992     0.0023323615   8.1805787e-05  20.620146      19.209322      1.4108241     -1.3099708      18487.94     
    263000   0.95306279     0.0023323615  -0.00075839765  20.615616      19.200318      1.4152982     -1.3831053      18524.847    
    264000   0.96450829     0.0023323615  -0.00065265743  20.442081      19.009786      1.4322948     -1.4754017      18700.081    
    265000   0.9080622      0.0023323615  -0.00079258816  20.435067      19.086595      1.3484724     -1.410249       18591.345    
    266000   0.86611449     0.0023323615  -0.0017675978   20.371144      19.084963      1.28618       -1.3754911      18463.515    
    267000   0.94320616     0.0023323615  -0.0043761926   20.364766      18.964105      1.4006611     -1.505211       18328.663    
    268000   1.0754045      0.0023323615   0.0017026389   20.477398      18.880422      1.5969757     -1.6360091      18325.486    
    269000   1.1125644      0.0023323615   0.003566396    20.519437      18.867279      1.6521582     -1.5912116      18349.568    
    270000   1.0524682      0.0023323615  -0.0055191862   20.695614      19.132699      1.5629153     -1.6345012      18314.199    
    271000   1.0372663      0.0023323615   0.0002435307   20.531818      18.991477      1.5403404     -1.6327686      18241.281    
    272000   1.0363329      0.0023323615   0.0011793259   20.410783      18.871829      1.5389544     -1.5487169      18188.283    
    273000   0.93161373     0.0023323615   0.0031533971   20.402007      19.018561      1.3834464     -1.6545856      18263.356    
    274000   0.97879017     0.0023323615  -0.0010440525   20.570492      19.116989      1.4535034     -1.3178146      18240.694    
    275000   1.0666913      0.0023323615   0.0005065054   21.046984      19.462947      1.5840366     -1.2380833      18359.447    
    276000   1.0161798      0.0023323615   0.00049676508  20.7574        19.248374      1.509027      -1.3652859      18364.487    
    277000   1.0507816      0.0023323615  -0.00051699413  20.939096      19.378686      1.5604107     -1.3444164      18341.425    
    278000   0.9697426      0.0023323615  -0.0008219565   20.857034      19.416967      1.4400678     -1.2677407      18418.82     
    279000   1.0916123      0.0023323615   0.0012006199   20.613771      18.992727      1.6210442     -1.5958296      18343.707    
    280000   1.0563635      0.0023323615  -0.0018413817   20.668134      19.099435      1.5686997     -1.3764256      18438.361    
    281000   1.057723       0.0023323615  -0.0052392689   20.701034      19.130316      1.5707187     -1.3983668      18468.322    
    282000   1.0521612      0.0023323615   0.002497961    20.465273      18.902813      1.5624594     -1.682245       18465.875    
    283000   0.9163811      0.0023323615   0.00099667836  20.527561      19.166735      1.3608259     -1.3535126      18452.494    
    284000   0.97208451     0.0023323615  -0.00049746723  20.511892      19.068347      1.4435455     -1.3750575      18489.392    
    285000   0.93189881     0.0023323615   0.0015035058   20.4355        19.05163       1.3838697     -1.3384727      18347.17     
    286000   0.90679845     0.0023323615   0.0023741856   20.24338       18.896784      1.3465957     -1.5231501      18325.739    
    287000   0.99085902     0.0023323615  -0.00067562713  20.439569      18.968144      1.4714256     -1.4188237      18301.13     
    288000   1.1390472      0.0023323615  -0.00095783246  20.923962      19.232477      1.6914851     -1.3431493      18440.453    
    289000   1.0153425      0.0023323615  -7.9703269e-05  20.969918      19.462134      1.5077836     -1.2837848      18396.632    
    290000   0.96977461     0.0023323615   0.0013354341   20.256962      18.816846      1.4401153     -1.5527959      18476.462    
    291000   0.99496777     0.0023323615  -0.00093569304  20.336282      18.858755      1.4775271     -1.6317705      18284.286    
    292000   0.91218912     0.0023323615  -0.00012117549  20.421079      19.066478      1.3546008     -1.290763       18423.182    
    293000   0.99805501     0.0023323615   0.00016567242  20.715075      19.232964      1.4821117     -1.264033       18493.819    
    294000   0.86364867     0.0023323615  -0.0021300308   20.359457      19.076938      1.2825183     -1.4209056      18364.913    
    295000   1.0812796      0.0023323615   0.0031747194   20.456348      18.850647      1.6057002     -1.5577334      18307.444    
    296000   0.99863463     0.0023323615   0.0010271878   20.260243      18.777271      1.4829724     -1.6857428      18270.899    
    297000   1.0358547      0.0023323615  -0.0032031756   20.367826      18.829581      1.5382443     -1.6820667      18383.987    
    298000   1.0355815      0.0023323615   0.00039791663  20.530623      18.992784      1.5378385     -1.6060709      18459.797    
    299000   1.0114451      0.0023323615   0.0032571265   20.366274      18.864278      1.501996      -1.6057747      18375.465    
    300000   0.92707187     0.0023323615   0.0027417562   20.521704      19.145002      1.3767017     -1.4944477      18392.564    
    301000   0.82335524     0.0023323615   0.0022962232   20.295877      19.073194      1.2226825     -1.5099363      18387.235    
    302000   1.0771369      0.0023323615   0.0021563571   20.744065      19.144517      1.5995484     -1.3397259      18258.759    
    303000   1.0625943      0.0023323615   0.0033786678   20.753592      19.17564       1.5779525     -1.4430199      18338.732    
    304000   0.8514757      0.0023323615   0.0013381641   20.602309      19.337868      1.2644414     -1.3623265      18472.3      
    305000   0.93136152     0.0023323615  -0.0015662596   20.508497      19.125425      1.3830719     -1.3619487      18813.531    
    306000   1.1020603      0.0023323615   0.0007279997   20.855565      19.219005      1.6365596     -1.2339629      18547.267    
    307000   0.97441015     0.0023323615  -0.0003419816   20.389894      18.942895      1.4469991     -1.4853499      18478.045    
    308000   0.99003747     0.0023323615  -0.0032272635   20.69934       19.229135      1.4702056     -1.2561321      18362.534    
    309000   0.96694884     0.0023323615   0.0024759549   20.417532      18.981612      1.435919      -1.4638874      18252.102    
    310000   1.0373332      0.0023323615   0.00064092411  20.481264      18.940824      1.5404398     -1.5022623      18329.458    
    311000   1.094099       0.0023323615   0.0038335076   20.781273      19.156536      1.624737      -1.4890652      18358.461    
    312000   1.1572074      0.0023323615   0.0024849125   20.807379      19.088926      1.7184529     -1.4751117      18366.349    
    313000   1.0851215      0.0023323615   0.0023681795   20.729593      19.118188      1.6114055     -1.4704426      18382.717    
    314000   0.9382232      0.0023323615   0.0010583997   20.675994      19.282732      1.3932615     -1.3413786      18403.613    
    315000   0.94318302     0.0023323615  -0.0043537702   20.512016      19.111389      1.4006268     -1.5078598      18549.235    
    316000   1.0288042      0.0023323615  -0.0037019027   20.463166      18.935392      1.5277742     -1.5994329      18341.118    
    317000   0.90883768     0.0023323615  -0.0010351064   20.350665      19.001041      1.349624      -1.590281       18092.318    
    318000   0.87626879     0.0023323615  -0.00029862292  20.408514      19.107254      1.3012591     -1.35367        18156.736    
    319000   1.090238       0.0023323615   0.00032955924  20.569693      18.950689      1.6190035     -1.5639518      18423.529    
    320000   1.0279567      0.0023323615  -0.0026436848   20.430968      18.904452      1.5265157     -1.6213498      18274.153    
    321000   0.96841821     0.0023323615  -0.00060201697  20.288161      18.850059      1.438101      -1.6641199      18238.868    
    322000   1.0779242      0.0023323615   0.00089001079  20.655672      19.054955      1.6007174     -1.5778735      18250.036    
    323000   0.95836595     0.0023323615   0.00056543102  20.207236      18.784063      1.4231734     -1.7146931      18204.541    
    324000   0.99731972     0.0023323615   0.0041218332   20.25525       18.77423       1.4810198     -1.7012338      18067.347    
    325000   1.0624689      0.0023323615  -0.00082886383  20.492633      18.914867      1.5777664     -1.5104309      18269.789    
    326000   0.93357444     0.0023323615   0.0044666157   20.412074      19.025716      1.386358      -1.4993796      18297.778    
    327000   0.96340163     0.0023323615  -0.0030530314   20.49915       19.068498      1.4306514     -1.4393699      18407.896    
    328000   1.0335933      0.0023323615  -0.0019733684   20.489924      18.955038      1.534886      -1.5071727      18503.466    
    329000   0.94924972     0.0023323615  -0.0020348405   20.132395      18.72276       1.4096358     -1.7513326      18318.37     
    330000   0.941766       0.0023323615   0.0019601757   20.383268      18.984745      1.3985225     -1.4944412      18222.272    
    331000   1.0179803      0.0023323615  -0.0041192327   20.592798      19.081097      1.5117008     -1.5221578      18287.006    
    332000   0.97797159     0.0023323615   0.0021323329   20.468304      19.016016      1.4522878     -1.4651119      18261.435    
    333000   0.99186618     0.0023323615   0.00091478426  20.727511      19.25459       1.4729213     -1.5351653      18256.389    
    334000   0.95260224     0.0023323615  -0.00069784874  20.472137      19.057523      1.4146143     -1.4000809      18359.285    
    335000   0.91459524     0.0023323615   0.0010969028   20.319383      18.961209      1.3581739     -1.7234112      18233.38     
    336000   0.98352664     0.0023323615   0.0064819928   20.653777      19.19324       1.4605371     -1.2820781      18478.74     
    337000   0.90105772     0.0023323615   0.00027629973  20.149001      18.810931      1.3380707     -1.6412093      18363.203    
    338000   0.91102514     0.0023323615   0.0030524099   20.156594      18.803722      1.3528723     -1.7198056      18220.446    
    339000   1.0009698      0.0023323615   0.001159341    20.589093      19.102653      1.4864402     -1.3706092      18359.451    
    340000   0.93571043     0.0023323615  -0.0029821642   20.424429      19.034899      1.38953       -1.569916       18525.985    
    341000   1.1143224      0.0023323615   0.004061351    20.59272       18.937951      1.6547688     -1.5611066      18244.098    
    342000   1.1534958      0.0023323615   0.0024206183   20.911781      19.19884       1.7129413     -1.3017231      18512.231    
    343000   0.92363675     0.0023323615   0.0039555275   20.811916      19.440316      1.3716006     -1.0879449      18771.088    
    344000   1.0491118      0.0023323615  -0.00018152024  20.782882      19.224951      1.5579311     -1.2870806      18705.081    
    345000   1.0175488      0.0023323615   0.00050370891  20.725092      19.214033      1.5110599     -1.3772974      18582.903    
    346000   1.0054359      0.0023323615  -0.00043929224  20.873704      19.380631      1.4930723     -1.2923407      18708.468    
    347000   1.058634       0.0023323615  -0.0015420718   20.583652      19.011581      1.5720714     -1.5770853      18670.097    
    348000   1.0437514      0.0023323615   0.0015317045   20.591844      19.041873      1.5499708     -1.5714295      18394.886    
    349000   1.0308325      0.0023323615  -0.0021866475   20.559652      19.028865      1.5307862     -1.6284338      18340.319    
    350000   1.0271065      0.0023323615  -0.0021732494   20.456354      18.931101      1.5252531     -1.5384074      18324.35     
    351000   1.0688794      0.0023323615  -0.0034646931   20.769416      19.18213       1.5872858     -1.4209361      18365.51     
    352000   1.0867314      0.0023323615   0.0030434457   20.436607      18.822811      1.6137961     -1.5818323      18299.392    
    353000   1.0060633      0.0023323615  -0.0010156607   20.544175      19.050171      1.494004      -1.4678269      18275.535    
    354000   0.93822138     0.0023323615  -0.0025173615   20.663531      19.270272      1.3932587     -1.3186249      18480.581    
    355000   1.0114702      0.0023323615   0.0035020979   20.826325      19.324292      1.5020332     -1.2418594      18473.709    
    356000   0.88432958     0.0023323615  -0.0015421025   20.536947      19.223717      1.3132294     -1.353567       18685.451    
    357000   1.0241134      0.0023323615   0.002592051    20.462961      18.942153      1.5208085     -1.4810734      18674.742    
    358000   1.0547567      0.0023323615   0.00064842259  20.667354      19.10104       1.5663138     -1.3420171      18481.128    
    359000   1.0229987      0.0023323615  -9.9451253e-05  20.582438      19.063285      1.5191531     -1.5188086      18490.883    
    360000   1.0671071      0.0023323615  -0.0013912487   20.997037      19.412383      1.5846541     -1.1067311      18477.532    
    361000   0.94843843     0.0023323615   0.0028831832   20.699132      19.290701      1.4084311     -1.1225783      18639.576    
    362000   0.97809586     0.0023323615  -0.003326656    20.72814       19.275668      1.4524723     -1.2545936      18517.561    
    363000   0.94575712     0.0023323615  -0.00029497071  20.612884      19.208435      1.4044493     -1.3194932      18456.666    
    364000   0.85435326     0.0023323615   0.0042888565   20.574073      19.305359      1.2687146     -1.2694236      18430.98     
    365000   1.0810762      0.0023323615   0.0020191501   20.621112      19.015714      1.6053981     -1.3925924      18459.974    
    366000   1.04412        0.0023323615  -0.001924965    20.655875      19.105357      1.5505181     -1.3376236      18369.614    
    367000   1.1147403      0.0023323615   0.001046535    20.898868      19.243479      1.6553893     -1.316734       18488.184    
    368000   1.0361475      0.0023323615  -0.0020357073   20.494491      18.955811      1.538679      -1.5696157      18407.611    
    369000   0.89202405     0.0023323615  -0.0022167698   20.38415       19.059495      1.3246557     -1.4593514      18494.658    
    370000   1.1603575      0.0023323615   0.0010523217   20.599409      18.876278      1.7231309     -1.5519092      18376.574    
    371000   1.1037008      0.0023323615   0.0035008199   20.553496      18.9145        1.6389957     -1.4837798      18401.279    
    372000   1.0269024      0.0023323615  -0.0033535327   20.818168      19.293218      1.5249501     -1.1518061      18662.194    
    373000   0.99935562     0.0023323615  -4.5934509e-05  20.64671       19.162667      1.4840431     -1.3162234      18653.638    
    374000   1.0930615      0.0023323615   0.0015919983   20.756247      19.133051      1.6231963     -1.2871469      18390.748    
    375000   1.0435361      0.0023323615   0.002350261    20.698672      19.149021      1.5496511     -1.3338893      18591.352    
    376000   0.96128335     0.0023323615   0.0017123111   20.469102      19.041596      1.4275058     -1.4723472      18573.763    
    377000   1.0334471      0.0023323615   0.0046404133   20.763511      19.228842      1.5346689     -1.447917       18355.274    
    378000   1.004764       0.0023323615  -0.001926189    20.582444      19.090369      1.4920746     -1.5466373      18192.583    
    379000   0.83263067     0.0023323615  -0.0022623468   20.254299      19.017842      1.2364565     -1.4571355      18322.614    
    380000   0.9152193      0.0023323615   0.0046173663   20.596122      19.237022      1.3591007     -1.3111262      18430.398    
    381000   1.019564       0.0023323615  -0.0011804419   20.472395      18.958342      1.5140525     -1.4674576      18337.118    
    382000   0.97698033     0.0023323615  -0.0020664197   20.578309      19.127493      1.4508158     -1.3122209      18629.122    
    383000   0.98652107     0.0023323615  -0.0014394956   20.718056      19.253073      1.4649838     -1.3117988      18950.652    
    384000   0.95624432     0.0023323615  -0.0031875803   20.336845      18.916823      1.4200228     -1.5125927      18665.073    
    385000   1.1211078      0.0023323615  -0.0022877128   20.890246      19.225401      1.664845      -1.4039712      18427.794    
    386000   0.96955733     0.0023323615  -0.0019158007   20.3799        18.940108      1.4397926     -1.6959747      18344.051    
    387000   0.85730282     0.0023323615   0.0006426008   20.469468      19.196373      1.2730947     -1.3940218      18373.147    
    388000   0.96459953     0.0023323615   0.00085067241  20.663572      19.231142      1.4324303     -1.3709373      18370.808    
    389000   1.068027       0.0023323615  -0.0018700942   20.582846      18.996826      1.5860201     -1.4178351      18485.622    
    390000   1.0012323      0.0023323615   0.0055918142   20.480889      18.994059      1.48683       -1.5416658      18404.763    
    391000   1.0420107      0.0023323615  -0.0022559265   20.470842      18.923456      1.5473858     -1.6025429      18120.648    
    392000   1.0002652      0.0023323615  -0.0026582105   20.401143      18.915749      1.4853938     -1.4949437      18275.224    
    393000   1.0296131      0.0023323615   0.0025525507   20.48027       18.951295      1.5289754     -1.6824267      18290.726    
    394000   1.0761033      0.0023323615  -0.0026207466   20.569338      18.971324      1.5980134     -1.6864429      18218.108    
    395000   1.1420331      0.0023323615   0.0023847497   20.627766      18.931847      1.6959192     -1.5755999      18294.37     
    396000   0.95993202     0.0023323615  -0.004339653    20.462187      19.036688      1.4254991     -1.5344048      18386.036    
    397000   1.0638758      0.0023323615  -0.00042850935  20.769781      19.189925      1.5798555     -1.2760824      18383.756    
    398000   0.99662208     0.0023323615  -0.00043627286  20.700526      19.220542      1.4799838     -1.2863012      18611.104    
    399000   0.98496672     0.0023323615   0.001945608    20.593959      19.131283      1.4626756     -1.4278676      18568.249    
    400000   1.0696144      0.0023323615  -0.0016126518   20.932094      19.343716      1.5883773     -1.1437758      18473.702    
    401000   1.1174895      0.0023323615  -0.0027064635   20.750013      19.090541      1.6594719     -1.483893       18542.233    
    402000   0.94154528     0.0023323615  -0.0025276949   20.366728      18.968534      1.3981947     -1.6142037      18515.83     
    403000   1.0337743      0.0023323615  -5.0617124e-05  20.603586      19.068432      1.5351549     -1.4902823      18503.871    
    404000   0.92519948     0.0023323615   0.00022599938  20.214303      18.840381      1.3739212     -1.5369532      18423.774    
    405000   0.98314937     0.0023323615   0.00095038508  20.588394      19.128417      1.4599768     -1.4260096      18579.035    
    406000   1.0055499      0.0023323615   0.0018339832   20.618941      19.125699      1.4932416     -1.3659828      18721.954    
    407000   1.0319714      0.0023323615  -0.0021113777   20.778153      19.245676      1.5324776     -1.2833984      18586.64     
    408000   1.0409634      0.0023323615   0.0034054824   20.430336      18.884506      1.5458306     -1.6269108      18369.009    
    409000   1.1481515      0.0023323615   0.0023625284   20.72797       19.022965      1.705005      -1.5071864      18293.016    
    410000   0.9926347      0.0023323615  -0.0015318767   20.496665      19.022602      1.4740625     -1.442239       18276.305    
[...]
    861000   0.7672402      0.0023323615   0.0014666539   19.889285      18.749933      1.1393517     -1.7083059      18403.684    
    862000   0.97216633     0.0023323615   0.0013713338   20.599413      19.155746      1.443667      -1.449089       18319.029    
    863000   1.061722       0.0023323615   0.00036597282  20.9572        19.380543      1.5766572     -1.2414647      18387.807    
    864000   0.88487975     0.0023323615  -0.00086690783  20.494893      19.180847      1.3140464     -1.4723509      18474.536    
    865000   1.0238825      0.0023323615  -0.0035424439   20.44649       18.926025      1.5204655     -1.5284999      18547.936    
    866000   0.95912956     0.0023323615   0.00073459526  20.397708      18.973401      1.4243074     -1.4975189      18468.64     
    867000   0.95940834     0.0023323615   0.00019006451  20.66043       19.235709      1.4247214     -1.1238795      18446.826    
    868000   0.98823887     0.0023323615  -0.00020763042  20.613004      19.145469      1.4675347     -1.3087856      18572.685    
    869000   0.91435925     0.0023323615   0.0044746575   20.239041      18.881218      1.3578235     -1.6564779      18427.92     
    870000   0.93192939     0.0023323615  -0.0029764537   20.876535      19.49262       1.3839151     -1.1964028      18520.186    
    871000   1.0169443      0.0023323615   0.0048162352   20.615523      19.10536       1.5101623     -1.3593941      18520.389    
    872000   1.0376082      0.0023323615  -0.0016891242   20.900107      19.359259      1.5408482     -1.2899979      18299.965    
    873000   1.0297464      0.0023323615  -0.0018661817   20.632806      19.103633      1.5291735     -1.4686552      18414.692    
    874000   1.0150328      0.0023323615   0.0029334184   20.321492      18.814169      1.5073238     -1.7555813      18243.478    
    875000   0.99458967     0.0023323615   0.0002021847   20.633391      19.156425      1.4769657     -1.3565927      18456.793    
    876000   0.83456289     0.0023323615   0.0036255395   20.431205      19.191879      1.2393259     -1.3938331      18429.023    
    877000   0.99355782     0.0023323615   0.0011097751   20.446602      18.971169      1.4754334     -1.530223       18245.602    
    878000   0.89021487     0.0023323615  -0.0019681852   20.25059       18.928621      1.3219691     -1.5978013      18258.539    
    879000   0.92226149     0.0023323615  -0.001559542    20.633627      19.264069      1.3695583     -1.3616277      18249.696    
    880000   1.1391903      0.0023323615   0.0022113879   20.825504      19.133806      1.6916975     -1.4011935      18356.762    
    881000   0.97881215     0.0023323615  -0.00060960725  20.603868      19.150332      1.453536      -1.4301298      18372.711    
    882000   0.96101111     0.0023323615  -0.0013757581   20.468213      19.041112      1.4271015     -1.4808882      18579.869    
    883000   1.0933735      0.0023323615   0.0017939048   20.866022      19.242363      1.6236596     -1.3796864      18612.718    
    884000   1.0345534      0.0023323615   0.0021443861   20.991828      19.455516      1.5363118     -1.0653041      18701.1      
    885000   0.90762311     0.0023323615   0.0030412605   20.553584      19.205764      1.3478203     -1.2889304      18709.089    
    886000   1.0118136      0.0023323615   0.0028395965   20.796692      19.294149      1.5025432     -1.2291423      18522.338    
    887000   0.99471318     0.0023323615  -0.0018000794   20.277698      18.800549      1.4771491     -1.5187886      18366.045    
    888000   0.98903784     0.0023323615  -0.0014108928   20.368655      18.899934      1.4687212     -1.5374404      18347.079    
    889000   0.97337113     0.0023323615  -0.0043503997   20.397488      18.952032      1.4454561     -1.6104548      18379.955    
    890000   0.86145677     0.0023323615  -0.0049469172   20.161347      18.882084      1.2792633     -1.5884252      18404.176    
    891000   1.1087042      0.0023323615   0.0011429831   20.468217      18.821792      1.6464258     -1.6571947      18463.631    
    892000   1.0497278      0.0023323615  -0.00075489502  20.448479      18.889634      1.5588458     -1.5213673      18335.802    
    893000   1.0414253      0.0023323615  -0.0018666368   20.587917      19.0414        1.5465165     -1.5133228      18423.148    
    894000   1.061833       0.0023323615   0.0025335771   20.644625      19.067803      1.5768221     -1.5024491      18351.16     
    895000   1.1475491      0.0023323615   0.00067175125  20.933503      19.229393      1.7041104     -1.3763698      18542.639    
    896000   0.89996156     0.0023323615   0.0060139387   20.391169      19.054726      1.3364429     -1.4692915      18389.742    
    897000   1.0078666      0.0023323615  -0.00038483031  20.806246      19.309564      1.496682      -1.2523874      18447.037    
    898000   0.90192219     0.0023323615   0.0010188427   20.601211      19.261856      1.3393545     -1.3811769      18550.217    
    899000   1.0436728      0.0023323615   0.00022342897  20.731852      19.181998      1.5498541     -1.3240637      18537.787    
    900000   1.0478656      0.0023323615  -0.00059571179  20.232312      18.676232      1.5560804     -1.7441096      18489.392    
    901000   0.98561628     0.0023323615   0.0010995032   20.473259      19.009619      1.4636402     -1.5461055      18490.845    
    902000   0.94173943     0.0023323615  -0.00182431     20.533461      19.134978      1.3984831     -1.4721466      18268.163    
    903000   1.0690361      0.0023323615  -0.0021303428   20.75765       19.170132      1.5875186     -1.4221685      18278.748    
    904000   0.92627898     0.0023323615   0.00056168829  20.522042      19.146518      1.3755243     -1.434216       18364.977    
    905000   1.1500402      0.0023323615   0.002242073    20.944048      19.236238      1.7078098     -1.3203369      18520.87     
    906000   1.0036977      0.0023323615   0.00091961921  20.605108      19.114617      1.4904911     -1.4480606      18380.479    
    907000   1.0709316      0.0023323615   0.0009789793   20.775883      19.18555       1.5903334     -1.3793527      18394.72     
    908000   1.1160081      0.0023323615   0.0033230053   20.773097      19.115825      1.657272      -1.4285792      18476.489    
    909000   0.99948516     0.0023323615   0.0028557532   20.518906      19.03467       1.4842355     -1.5255629      18362.622    
    910000   1.1900818      0.0023323615   0.0021245342   21.023844      19.256573      1.7672715     -1.3186203      18372.542    
    911000   0.90519167     0.0023323615   0.0032745769   20.107854      18.763644      1.3442096     -1.6819111      18347.214    
    912000   1.0253482      0.0023323615   0.00025933697  20.477777      18.955135      1.5226421     -1.4365328      18334.754    
    913000   1.1019225      0.0023323615   0.0025265126   20.712762      19.076407      1.6363549     -1.32311        18498.099    
    914000   0.97342175     0.0023323615   0.00024258164  20.698216      19.252685      1.4455313     -1.4047055      18757.419    
    915000   1.1246956      0.0023323615  -0.0017625382   20.977351      19.307178      1.670173      -1.3547313      18443.294    
    916000   1.0455539      0.0023323615   0.0002349126   20.631738      19.07909       1.5526475     -1.3980492      18357.175    
    917000   0.99024805     0.0023323615  -0.0021092295   20.718906      19.248388      1.4705184     -1.2283991      18330.871    
    918000   0.9797149      0.0023323615   0.0013811483   20.4423        18.987423      1.4548766     -1.4293129      18247.954    
    919000   1.0629715      0.0023323615   0.0016947753   20.95153       19.373017      1.5785126     -1.1823125      18348.93     
    920000   0.96076727     0.0023323615  -0.00028450984  20.398151      18.971412      1.4267394     -1.4701282      18379.623    
    921000   1.0940195      0.0023323615  -0.00082766213  20.576419      18.9518        1.624619      -1.4886071      18279.923    
    922000   0.94522506     0.0023323615   0.0024476133   20.607852      19.204193      1.4036592     -1.2966753      18562.12     
    923000   0.99358322     0.0023323615  -0.00069011867  20.751123      19.275652      1.4754711     -1.2986498      18700.049    
    924000   1.0718226      0.0023323615   0.00012777818  20.680136      19.088479      1.5916565     -1.403661       18817.525    
    925000   1.1325823      0.0023323615  -0.00079823101  20.967805      19.28592       1.6818847     -1.3062611      18766.63     
    926000   0.921827       0.0023323615   0.0012101786   20.68528       19.316367      1.3689131     -1.2306816      18574.499    
    927000   0.93291841     0.0023323615   0.0021598999   20.210666      18.825282      1.3853838     -1.600444       18337.472    
    928000   1.0480602      0.0023323615  -0.00041402495  20.747257      19.190887      1.5563694     -1.2452245      18488.399    
    929000   1.0512975      0.0023323615   0.0018817645   20.883078      19.321901      1.5611768     -1.1049192      18674.376    
    930000   1.0689451      0.0023323615  -0.0014044296   20.96694       19.379556      1.5873835     -1.2883661      18524.435    
    931000   1.0420094      0.0023323615  -0.0035866817   20.780721      19.233337      1.547384      -1.2898768      18509.783    
    932000   0.91818863     0.0023323615  -0.0011638341   20.713849      19.350339      1.3635101     -1.200367       18753.567    
    933000   1.0405962      0.0023323615   0.00015948534  20.835056      19.289771      1.5452854     -1.3039497      18668.934    
    934000   0.87293836     0.0023323615   0.001534191    20.561657      19.265344      1.2963135     -1.3502164      18421.238    
    935000   0.95889323     0.0023323615  -0.0019019922   20.60617       19.182214      1.4239564     -1.3816323      18267.585    
    936000   0.98574032     0.0023323615  -0.0027536114   20.514964      19.05114       1.4638244     -1.4379939      18310.648    
    937000   0.99240819     0.0023323615  -0.0041928345   20.563327      19.089601      1.4737262     -1.4953213      18397.727    
    938000   0.99698992     0.0023323615  -0.0025769368   20.512249      19.031719      1.48053       -1.5688955      18412.124    
    939000   1.0564464      0.0023323615   0.0026025612   20.383321      18.814498      1.568823      -1.6982759      18435.603    
    940000   1.0137015      0.0023323615   0.002444704    20.417116      18.911769      1.5053467     -1.7797927      18365.538    
    941000   1.0931414      0.0023323615   0.0021202258   20.558866      18.935551      1.623315      -1.5263473      18417.172    
    942000   1.1176353      0.0023323615  -0.0021202982   20.754628      19.094939      1.6596884     -1.5477945      18387.519    
    943000   1.0029738      0.0023323615   0.0043572932   20.5495        19.060084      1.4894161     -1.5219265      18143.422    
    944000   1.0550889      0.0023323615   0.00048465562  20.776197      19.20939       1.5668071     -1.4021075      18405.557    
    945000   0.95568835     0.0023323615  -0.00029640268  20.365912      18.946714      1.4191972     -1.7284021      18243.932    
    946000   1.0602227      0.0023323615   0.0042257698   20.723003      19.148573      1.5744308     -1.5065007      18310.95     
    947000   1.1564186      0.0023323615  -0.00098117659  20.847669      19.130388      1.7172816     -1.412131       18328.841    
    948000   1.0377569      0.0023323615  -0.001145571    20.555437      19.014368      1.541069      -1.4282908      18250.964    
    949000   1.0538938      0.0023323615  -0.00092471655  20.609715      19.044682      1.5650323     -1.5173359      18293.64     
    950000   1.1421734      0.0023323615   0.0057512025   20.624438      18.928311      1.6961275     -1.7064409      18312.586    
    951000   0.93373567     0.0023323615   0.0023683111   20.563331      19.176734      1.3865975     -1.3857962      18317.778    
    952000   0.92518738     0.0023323615   0.00137919     20.31277       18.938867      1.3739033     -1.565838       18277.801    
    953000   0.98244272     0.0023323615   0.00012647913  20.624788      19.165861      1.4589274     -1.300269       18428.764    
    954000   0.97278951     0.0023323615   0.0038161464   20.393727      18.949134      1.4445924     -1.5217385      18319.459    
    955000   0.90110729     0.0023323615  -0.00027098509  20.29349       18.955345      1.3381443     -1.6114276      18327.842    
    956000   1.0650944      0.0023323615   0.0023131184   20.691448      19.109783      1.5816652     -1.3498568      18261.415    
    957000   0.99343675     0.0023323615  -0.0010439824   20.787603      19.31235       1.4752536     -1.3915236      18436.124    
    958000   0.98840317     0.0023323615  -0.001832187    20.510155      19.042377      1.4677787     -1.4961672      18441.212    
    959000   0.96733687     0.0023323615  -0.00134286     20.270969      18.834473      1.4364953     -1.6499823      18399.06     
    960000   1.0852625      0.0023323615   0.00057433477  20.791848      19.180234      1.6116148     -1.411274       18469.651    
    961000   1.0396005      0.0023323615  -0.0025734111   20.534608      18.990801      1.5438067     -1.5388918      18581.239    
    962000   0.98346141     0.0023323615  -0.0022414398   20.532273      19.071833      1.4604402     -1.4080928      18468.729    
    963000   0.99194311     0.0023323615  -1.8248782e-06  20.744277      19.271241      1.4730355     -1.2659973      18488.437    
    964000   1.1226035      0.0023323615   0.00086150965  20.56223       18.895164      1.6670663     -1.6175323      18414.879    
    965000   0.82748207     0.0023323615  -0.00022505055  20.210608      18.981798      1.2288109     -1.5677791      18343.97     
    966000   0.88112159     0.0023323615  -0.00067296924  20.409334      19.100869      1.3084656     -1.510483       18359.423    
    967000   0.7869373      0.0023323615  -0.0038736266   20.307084      19.138482      1.1686019     -1.475228       18307.655    
    968000   1.0069715      0.0023323615   0.0043889835   20.737462      19.242109      1.4953527     -1.3119881      18491.03     
    969000   0.98320124     0.0023323615  -0.00021235969  20.667214      19.20716       1.4600538     -1.2348667      18500.976    
    970000   1.1150098      0.0023323615  -0.0028614524   20.847413      19.191623      1.6557895     -1.4119337      18441.359    
    971000   1.0376691      0.0023323615   0.0010518821   20.572167      19.031229      1.5409386     -1.4537244      18254.068    
    972000   0.98074285     0.0023323615   0.00088852256  20.591097      19.134694      1.4564031     -1.459436       18248.731    
    973000   0.95661772     0.0023323615   0.0015472757   20.421198      19.000621      1.4205773     -1.4530088      18344.344    
    974000   1.0935142      0.0023323615   0.0050495674   20.538917      18.915048      1.6238686     -1.5948203      18207.992    
    975000   1.069984       0.0023323615   0.00048430836  20.803823      19.214897      1.5889262     -1.326554       18352.324    
    976000   1.0274378      0.0023323615   0.00087876408  20.483817      18.958072      1.5257451     -1.5697057      18406.986    
    977000   1.0075715      0.0023323615   0.0026616504   20.279456      18.783213      1.4962436     -1.6248512      18604.482    
    978000   1.0473079      0.0023323615  -0.0011153775   20.949902      19.39465       1.5552522     -1.1964894      18509.217    
    979000   1.0347512      0.0023323615  -0.0014163139   20.988636      19.452031      1.5366056     -1.1860906      18559.251    
    980000   1.0700069      0.0023323615  -0.0067303558   20.674715      19.085755      1.5889603     -1.5214857      18436.907    
    981000   0.94566104     0.0023323615  -0.0037220646   20.724584      19.320278      1.4043066     -1.2359377      18362.21     
    982000   0.98707025     0.0023323615   0.0033753407   20.459074      18.993274      1.4657993     -1.5413935      18367.836    
    983000   0.99634057     0.0023323615  -0.0027309541   20.476292      18.996726      1.4795657     -1.5182062      18529.562    
    984000   1.0856955      0.0023323615  -0.00081515716  20.993486      19.381228      1.6122579     -1.2639463      18539.013    
    985000   0.95587677     0.0023323615  -0.0030316752   20.608647      19.18917       1.419477      -1.392834       18471.425    
    986000   0.8842131      0.0023323615  -0.00096565041  20.418017      19.10496       1.3130565     -1.4674645      18360.193    
    987000   0.90785476     0.0023323615   0.0038872646   20.550954      19.202789      1.3481643     -1.2981314      18345.841    
    988000   0.98642976     0.0023323615  -0.0010564878   20.563254      19.098406      1.4648482     -1.4482222      18433.526    
    989000   0.95572844     0.0023323615  -0.001012761    20.393254      18.973997      1.4192567     -1.5015365      18590.743    
    990000   1.1299532      0.0023323615  -0.0028727755   21.000255      19.322274      1.6779805     -1.2479516      18415.354    
    991000   1.0642696      0.0023323615  -0.0027325381   20.698708      19.118268      1.5804403     -1.3850615      18487.958    
    992000   1.0051563      0.0023323615   0.0027918796   20.546816      19.054159      1.492657      -1.3416258      18489.338    
    993000   0.87185005     0.0023323615  -0.0035433205   20.393091      19.098394      1.2946973     -1.4570819      18491.403    
    994000   1.0007606      0.0023323615   0.0022784787   20.749588      19.263458      1.4861295     -1.2261513      18456.37     
    995000   1.0160105      0.0023323615  -7.9859793e-05  20.786844      19.278068      1.5087757     -1.205328       18634.916    
    996000   1.2027004      0.0023323615   0.0011236037   20.859251      19.073241      1.7860101     -1.4257246      18468.968    
    997000   1.0158183      0.0023323615  -0.0018305022   20.7265        19.21801       1.5084902     -1.3396556      18418.022    
    998000   1.0199188      0.0023323615  -0.00034783108  20.69009       19.17551       1.5145794     -1.3107278      18519.63     
    999000   1.0546699      0.0023323615   0.0036367583   20.346197      18.780012      1.5661848     -1.7860678      18284.993    
   1000000   0.92783342     0.0023323615  -0.0035325506   20.25993       18.882097      1.3778326     -1.6813078      18327.105    
Loop time of 54.2782 on 1 procs for 1000000 steps with 100 atoms

Performance: 7958997.125 tau/day, 18423.604 timesteps/s
99.4% CPU use with 1 MPI tasks x 1 OpenMP threads

MPI task timing breakdown:
Section |  min time  |  avg time  |  max time  |%varavg| %total
---------------------------------------------------------------
Pair    | 45.294     | 45.294     | 45.294     |   0.0 | 83.45
Bond    | 1.2903     | 1.2903     | 1.2903     |   0.0 |  2.38
Neigh   | 3.8059     | 3.8059     | 3.8059     |   0.0 |  7.01
Comm    | 1.3719     | 1.3719     | 1.3719     |   0.0 |  2.53
Output  | 0.21348    | 0.21348    | 0.21348    |   0.0 |  0.39
Modify  | 1.9443     | 1.9443     | 1.9443     |   0.0 |  3.58
Other   |            | 0.3586     |            |       |  0.66

Nlocal:            100 ave         100 max         100 min
Histogram: 1 0 0 0 0 0 0 0 0 0
Nghost:            302 ave         302 max         302 min
Histogram: 1 0 0 0 0 0 0 0 0 0
Neighs:           4851 ave        4851 max        4851 min
Histogram: 1 0 0 0 0 0 0 0 0 0

Total # of neighbors = 4851
Ave neighs/atom = 48.51
Ave special neighs/atom = 1.98
Neighbor list builds = 97877
Dangerous builds = 79933

write_data      ${outputfile_assembled} nofix nocoeff
write_data      7_assembled.data nofix nocoeff
System init for write_data ...
Generated 0 of 6 mixed pair_coeff terms from geometric mixing rule

Total wall time: 0:00:55
