LAMMPS (23 Jun 2022 - Update 1)
OMP_NUM_THREADS environment is not set. Defaulting to 1 thread. (src/comm.cpp:98)
  using 1 OpenMP thread(s) per MPI task


variable        runtime equal 1000000
variable		subsample_rate equal 1000

variable		outputfile_created string '3_created.data'
variable		outputfile_relaxed string '5_relaxed.data'
variable		outputfile_selfasb string '6_a_self_assemble.lammpstrj'
variable		outputfile_trajlin string '6_b_trajlin.data'
variable		outputfile_assembled string '7_assembled.data'

units           lj
atom_style      full
dimension       3
boundary        p p p
timestep        0.005

read_data       ${outputfile_created}
read_data       3_created.data
Reading data file ...
  orthogonal box = (0 0 0) to (35 35 35)
  1 by 1 by 1 MPI processor grid
  reading atoms ...
  100 atoms
  reading velocities ...
  100 velocities
  scanning bonds ...
  1 = max bonds/atom
  reading bonds ...
  99 bonds
Finding 1-2 1-3 1-4 neighbors ...
  special bond factors lj:    0        0        0       
  special bond factors coul:  0        0        0       
     2 = max # of 1-2 neighbors
     2 = max # of 1-3 neighbors
     4 = max # of 1-4 neighbors
     6 = max # of special neighbors
  special bonds CPU = 0.000 seconds
  read_data CPU = 0.006 seconds

bond_style      fene
bond_coeff      * 30.0 1.5 1.0 1.0
special_bonds   fene
Finding 1-2 1-3 1-4 neighbors ...
  special bond factors lj:    0        1        1       
  special bond factors coul:  0        1        1       
     2 = max # of 1-2 neighbors
     6 = max # of special neighbors
  special bonds CPU = 0.000 seconds

variable        Temp equal 1.0
variable        velSeed equal 926458

velocity        all create ${Temp} ${velSeed}
velocity        all create 1 ${velSeed}
velocity        all create 1 926458

### Output
thermo_style    custom step temp density press etotal pe ke epair spcpu
thermo          1000

###########################################################################
# Soft relaxation (to remove overlaps of particles)
######################################################################

pair_style      soft 1.0
pair_coeff      * * 0.0
variable        prefactor equal ramp(0,300)
fix             rampSoft all adapt 1 pair soft a * * v_prefactor

minimize        0.0 1.0e-8 1000 100000
WARNING: Using 'neigh_modify every 1 delay 0 check yes' setting during minimization (src/min.cpp:187)
Generated 0 of 6 mixed pair_coeff terms from geometric mixing rule
Neighbor list info ...
  update every 1 steps, delay 0 steps, check yes
  max neighbors/atom: 2000, page size: 100000
  master list distance cutoff = 1.3
  ghost atom cutoff = 1.3
  binsize = 0.65, bins = 54 54 54
  1 neighbor lists, perpetual/occasional/extra = 1 0 0
  (1) pair soft, perpetual
      attributes: half, newton on
      pair build: half/bin/newton
      stencil: half/bin/3d
      bin: standard
WARNING: Communication cutoff 1.3 is shorter than a bond length based estimate of 1.7550000000000001. This may lead to errors. (src/comm.cpp:727)
Per MPI rank memory allocation (min/avg/max) = 8.346 | 8.346 | 8.346 Mbytes
   Step          Temp         Density         Press          TotEng         PotEng         KinEng         E_pair         S/CPU     
         0   1              0.0023323615  -0.0039617958   21.524174      20.039174      1.485          0              0            
       362   1              0.0023323615   0.0023090379   21.485548      20.000548      1.485          0              68732.79     
Loop time of 0.00526907 on 1 procs for 362 steps with 100 atoms

99.1% CPU use with 1 MPI tasks x 1 OpenMP threads

Minimization stats:
  Stopping criterion = force tolerance
  Energy initial, next-to-last, final = 
      20.0391741078675   20.0005480767337   20.0005480767337
  Force two-norm initial, final = 11.878422 7.9509778e-09
  Force max component initial, final = 6.6117807 1.3572772e-09
  Final line search alpha, max atom move = 1 1.3572772e-09
  Iterations, force evaluations = 362 738

MPI task timing breakdown:
Section |  min time  |  avg time  |  max time  |%varavg| %total
---------------------------------------------------------------
Pair    | 0.000214   | 0.000214   | 0.000214   |   0.0 |  4.06
Bond    | 0.0023282  | 0.0023282  | 0.0023282  |   0.0 | 44.19
Neigh   | 0.001519   | 0.001519   | 0.001519   |   0.0 | 28.83
Comm    | 0.00018746 | 0.00018746 | 0.00018746 |   0.0 |  3.56
Output  | 0          | 0          | 0          |   0.0 |  0.00
Modify  | 0          | 0          | 0          |   0.0 |  0.00
Other   |            | 0.00102    |            |       | 19.37

Nlocal:            100 ave         100 max         100 min
Histogram: 1 0 0 0 0 0 0 0 0 0
Nghost:             20 ave          20 max          20 min
Histogram: 1 0 0 0 0 0 0 0 0 0
Neighs:              0 ave           0 max           0 min
Histogram: 1 0 0 0 0 0 0 0 0 0

Total # of neighbors = 0
Ave neighs/atom = 0
Ave special neighs/atom = 1.98
Neighbor list builds = 17
Dangerous builds = 0

fix             nvtSoft all nvt temp ${Temp} ${Temp} 0.5
fix             nvtSoft all nvt temp 1 ${Temp} 0.5
fix             nvtSoft all nvt temp 1 1 0.5
run             100000
Generated 0 of 6 mixed pair_coeff terms from geometric mixing rule
WARNING: Communication cutoff 1.3 is shorter than a bond length based estimate of 1.7550000000000001. This may lead to errors. (src/comm.cpp:727)
Per MPI rank memory allocation (min/avg/max) = 7.221 | 7.221 | 7.221 Mbytes
   Step          Temp         Density         Press          TotEng         PotEng         KinEng         E_pair         S/CPU     
       362   1              0.0023323615   0.0023090379   21.485548      20.000548      1.485          0              0            
      1000   0.90989032     0.0023323615  -0.0021940042   21.776974      20.425787      1.3511871      0.00036425437  78099.733    
      2000   0.86546688     0.0023323615   0.0034714157   21.677128      20.39191       1.2852183      0.0025814786   76950.069    
      3000   0.98199538     0.0023323615   0.0028144228   21.866132      20.407869      1.4582631      0.0011756043   72759.07     
      4000   1.004495       0.0023323615  -0.0014058211   21.945624      20.453949      1.4916751      0.011986179    73269.354    
      5000   1.1222705      0.0023323615   0.0044495116   21.986385      20.319813      1.6665718      0.0050317639   71891.134    
      6000   1.0538243      0.0023323615   0.0023957538   21.985713      20.420784      1.564929       0.012100514    75320.625    
      7000   1.0210598      0.0023323615  -0.00038820026  21.904665      20.388391      1.5162738      0              76876.697    
      8000   0.94819751     0.0023323615   0.0024943091   21.747889      20.339816      1.4080733      0              77109.207    
      9000   0.92364502     0.0023323615   0.0020053029   21.724166      20.352554      1.3716129      1.7780894e-05  76334.089    
     10000   0.86685188     0.0023323615   0.00078277366  21.644879      20.357604      1.287275       0.0098636418   76230.325    
     11000   1.0057103      0.0023323615   0.00010113276  21.8558        20.362321      1.4934798      0.020705341    76224.148    
     12000   0.97901664     0.0023323615  -0.0026996968   21.871206      20.417366      1.4538397      0.0052928539   75817.633    
     13000   0.97718436     0.0023323615  -6.1641422e-06  21.963706      20.512587      1.4511188      0.025022446    75073.514    
     14000   1.0530014      0.0023323615  -0.0009993112   21.947994      20.384287      1.5637071      0.0020860456   75137.537    
     15000   0.99094527     0.0023323615   0.0011068478   21.895146      20.423592      1.4715537      0.0015091113   75639.87     
     16000   0.91285091     0.0023323615  -0.00025424173  21.87524       20.519657      1.3555836      0.0047853639   75456.886    
     17000   0.82806978     0.0023323615  -0.00054698156  21.701984      20.472301      1.2296836      0              75564.389    
     18000   1.043278       0.0023323615  -6.6143919e-05  22.003299      20.454031      1.5492679      0.0034319132   76104.254    
     19000   1.0879249      0.0023323615  -0.0017804642   21.998985      20.383416      1.6155685      0.015376175    74234.701    
     20000   1.1144506      0.0023323615   0.0025198298   22.190904      20.535944      1.6549592      0              75924.327    
     21000   1.0427751      0.0023323615   0.0011345349   22.099492      20.550971      1.548521       0.00040047813  76294.766    
     22000   1.0586695      0.0023323615   0.0017882747   22.05673       20.484606      1.5721242      0              76299.604    
     23000   1.0058426      0.0023323615  -0.0055245362   21.954628      20.460951      1.4936763      0.0027619031   75347.066    
     24000   0.98273442     0.0023323615   0.0015147357   21.862067      20.402707      1.4593606      0              75616.774    
     25000   0.95835343     0.0023323615   0.0017808774   21.937761      20.514606      1.4231548      0.00020839942  75679.271    
     26000   0.93993778     0.0023323615  -0.0021777292   21.884849      20.489042      1.3958076      0.0088889834   76163.081    
     27000   0.9308188      0.0023323615  -0.00011239942  21.842252      20.459986      1.3822659      0.021612409    75395.21     
     28000   1.0149581      0.0023323615   0.0041996387   21.906846      20.399633      1.5072129      0.0064059022   75962.987    
     29000   0.92841138     0.0023323615  -2.5398808e-05  21.987185      20.608494      1.3786909      0.0046112484   75804.333    
     30000   1.021043       0.0023323615   0.001589158    22.097958      20.581709      1.5162489      0.016799508    73170.521    
     31000   1.0465985      0.0023323615  -0.0021744286   22.037917      20.483718      1.5541987      0.0057879149   75946.631    
     32000   0.98907108     0.0023323615  -0.0015558606   22.044089      20.575318      1.4687705      0.009448173    75418        
     33000   1.0918536      0.0023323615  -0.0025643847   22.039275      20.417873      1.6214025      0              74920.796    
     34000   0.99801543     0.0023323615   0.0016279766   21.932339      20.450286      1.4820529      0.017384617    76918.343    
     35000   1.0352271      0.0023323615  -0.0052971711   22.076004      20.538692      1.5373122      0.00010473809  75386.27     
     36000   1.1141579      0.0023323615  -0.00093279925  22.222491      20.567966      1.6545245      0.00033678641  76767.846    
     37000   1.0369415      0.0023323615   0.00013065175  22.217841      20.677983      1.5398581      0.013788831    75826.101    
     38000   1.0515596      0.0023323615   0.0021717558   22.070766      20.5092        1.561566       0.0067894678   76502.244    
     39000   1.0238495      0.0023323615   0.00026414509  22.040141      20.519725      1.5204165      0.00044464649  75301.018    
     40000   1.0749111      0.0023323615  -0.0026849368   22.039327      20.443084      1.596243       0.012651334    73909.065    
     41000   0.99070886     0.0023323615  -0.0030385564   22.03241       20.561207      1.4712027      0.00092855646  76972.197    
     42000   0.95315224     0.0023323615   0.0019788197   21.965263      20.549832      1.4154311      0.020233689    75622.961    
     43000   1.0644183      0.0023323615  -0.0011168725   22.287172      20.706511      1.5806611      0.039694129    75674.741    
     44000   1.0253747      0.0023323615  -0.006676522    22.066233      20.543552      1.5226814      0              74632.686    
     45000   0.94179556     0.0023323615  -0.0047206018   21.970644      20.572077      1.3985664      0.019869988    75465.724    
     46000   1.0083495      0.0023323615  -0.0017646918   21.972114      20.474715      1.497399       0.00026040605  73883.351    
     47000   0.98767959     0.0023323615  -0.00080218158  22.091674      20.62497       1.4667042      0.024266258    75340.237    
     48000   1.1473449      0.0023323615  -0.0025885687   22.080512      20.376705      1.7038072      0.00065962995  75550.556    
     49000   1.0679312      0.0023323615   0.0017688272   21.970482      20.384604      1.5858779      0.014142422    76479.847    
     50000   0.9581935      0.0023323615   0.0014398836   21.955202      20.532284      1.4229173      0.0055011948   75984.73     
     51000   1.0215759      0.0023323615  -0.00093292688  21.934681      20.41764       1.5170402      0              75634.481    
     52000   0.98079591     0.0023323615   0.0040701936   21.977374      20.520892      1.4564819      0.0020862422   76459.813    
     53000   1.0090927      0.0023323615   0.0013324753   22.095438      20.596935      1.4985027      0              75754.511    
     54000   0.97519627     0.0023323615   0.0013260734   22.070151      20.621984      1.4481665      0.026885444    76624.401    
     55000   1.1805087      0.0023323615  -0.001586238    22.424088      20.671033      1.7530554      0.024690954    76425.798    
     56000   0.98387121     0.0023323615   0.0037155145   22.104425      20.643376      1.4610487      0.01435493     75955.007    
     57000   1.0723812      0.0023323615  -0.0037916262   22.122726      20.53024       1.592486       0.013635549    76321.307    
     58000   1.0152349      0.0023323615   0.00021908047  22.082827      20.575203      1.5076238      0.00077375639  76269.878    
     59000   1.1424502      0.0023323615  -0.0052108657   22.30072       20.604182      1.6965385      0.013308184    77177.353    
     60000   1.0359703      0.0023323615  -0.00097887545  22.188218      20.649802      1.538416       0.00011346294  75481.935    
     61000   1.1646839      0.0023323615  -0.002085017    22.239945      20.51039       1.7295556      0.012918477    77443.887    
     62000   1.101836       0.0023323615   0.0010338878   22.171386      20.53516       1.6362265      0.001396566    76602.988    
     63000   0.96616435     0.0023323615   0.00097550571  21.903821      20.469067      1.4347541      0.013027663    77912.506    
     64000   1.0068907      0.0023323615  -0.0020278726   22.061652      20.566419      1.4952327      0.013750276    76383.691    
     65000   0.98723233     0.0023323615   0.0022441476   22.031073      20.565033      1.46604        0.0066686189   76663.535    
     66000   1.0273881      0.0023323615  -0.0003515278   22.183579      20.657908      1.5256713      0              74814.942    
     67000   0.96528212     0.0023323615  -0.00014822656  21.9396        20.506156      1.4334439      0.010365557    76745.176    
     68000   1.069702       0.0023323615   9.4754668e-05  22.081119      20.492611      1.5885075      0.00049153926  73978.8      
     69000   1.1229502      0.0023323615   0.0011504079   22.200329      20.532748      1.6675811      0.0068454249   76980.214    
     70000   1.0062775      0.0023323615  -0.00085311964  22.094021      20.599699      1.4943221      0.013222355    75335.23     
     71000   1.0906935      0.0023323615   0.00015260357  22.145362      20.525682      1.6196798      0.018338513    76227.646    
     72000   1.010401       0.0023323615  -6.0487182e-06  22.154105      20.653659      1.5004455      0.0013793953   74925.859    
     73000   1.1177599      0.0023323615  -0.0034084797   22.254435      20.594562      1.6598735      0.00011231735  77476.768    
     74000   0.9768019      0.0023323615   0.00016143893  22.07312       20.622569      1.4505508      0.0084515956   75709.517    
     75000   1.1360996      0.0023323615   0.002159116    22.161595      20.474487      1.6871079      0.0089909162   76462.274    
     76000   0.97379329     0.0023323615  -0.00068458621  21.988928      20.542845      1.446083       0              75554.786    
     77000   0.94876793     0.0023323615  -0.0016073976   21.923496      20.514575      1.4089204      0.017745108    75636.203    
     78000   0.83947996     0.0023323615  -0.00062768559  21.726727      20.480099      1.2466277      0.0054510099   76301.822    
     79000   1.0090614      0.0023323615  -0.00080262643  22.068192      20.569736      1.4984562      0.00023011166  76931.386    
     80000   1.1217643      0.0023323615  -0.0038177864   22.367902      20.702082      1.66582        0.032902439    76172.549    
     81000   1.0240158      0.0023323615   0.00023547123  22.031597      20.510933      1.5206635      0.0068767308   75740.718    
     82000   1.003236       0.0023323615  -0.0022802982   21.894199      20.404393      1.4898055      0.019136282    74279.835    
     83000   1.0554159      0.0023323615   0.004011718    22.104562      20.537269      1.5672927      0.0080869707   74545.839    
     84000   0.83527346     0.0023323615  -0.0034122221   21.874648      20.634267      1.2403811      0.0030083664   75844.199    
     85000   1.036002       0.0023323615   0.0013573923   21.962923      20.42446       1.5384629      0.015709144    76440.549    
     86000   0.9432002      0.0023323615  -0.0032183248   21.913588      20.512936      1.4006523      0.013730309    76420.53     
     87000   0.95566008     0.0023323615  -0.00049614223  21.91653       20.497375      1.4191552      0.0035862035   75622.561    
     88000   0.93373351     0.0023323615  -0.00097093893  21.870485      20.483891      1.3865943      0.0018212145   75207.575    
     89000   0.9684944      0.0023323615  -0.00047342045  21.973429      20.535215      1.4382142      0.00087524744  75670.142    
     90000   0.98293324     0.0023323615  -0.0032204602   22.050919      20.591263      1.4596559      0.015353933    76821.554    
     91000   1.0832827      0.0023323615   0.0048517083   22.11977       20.511095      1.6086749      0.0052867789   77598.735    
     92000   0.85899662     0.0023323615  -0.0013049519   21.765697      20.490087      1.27561        0.0024124001   76656.472    
     93000   0.96176266     0.0023323615  -4.4223672e-05  21.874222      20.446004      1.4282176      0.0045653365   77302.878    
     94000   0.96019503     0.0023323615   0.00024459347  21.944954      20.519064      1.4258896      3.8053462e-05  76319.268    
     95000   0.94702149     0.0023323615  -0.0033658915   21.86315       20.456823      1.4063269      0              77286.83     
     96000   0.91119348     0.0023323615  -0.0013197298   21.825018      20.471896      1.3531223      0.00043282989  75923.117    
     97000   1.0016687      0.0023323615  -0.0019514304   22.013024      20.525546      1.487478       0.0048369955   75524.371    
     98000   1.02143        0.0023323615  -0.0057874974   22.177965      20.661142      1.5168235      0              74591.19     
     99000   1.032786       0.0023323615   0.0018228259   21.975336      20.441649      1.5336871      7.1595851e-05  77637.371    
    100000   1.0594928      0.0023323615   0.0036169719   22.011024      20.437677      1.5733468      0.00032948157  76076.353    
    100362   1.1904942      0.0023323615  -0.00089755607  22.316856      20.548972      1.7678839      0.00063845255  75646.253    
Loop time of 1.31861 on 1 procs for 100000 steps with 100 atoms

Performance: 32761730.398 tau/day, 75837.339 timesteps/s
98.8% CPU use with 1 MPI tasks x 1 OpenMP threads

MPI task timing breakdown:
Section |  min time  |  avg time  |  max time  |%varavg| %total
---------------------------------------------------------------
Pair    | 0.049436   | 0.049436   | 0.049436   |   0.0 |  3.75
Bond    | 0.12591    | 0.12591    | 0.12591    |   0.0 |  9.55
Neigh   | 0.80453    | 0.80453    | 0.80453    |   0.0 | 61.01
Comm    | 0.055281   | 0.055281   | 0.055281   |   0.0 |  4.19
Output  | 0.0011638  | 0.0011638  | 0.0011638  |   0.0 |  0.09
Modify  | 0.2484     | 0.2484     | 0.2484     |   0.0 | 18.84
Other   |            | 0.03389    |            |       |  2.57

Nlocal:            100 ave         100 max         100 min
Histogram: 1 0 0 0 0 0 0 0 0 0
Nghost:             60 ave          60 max          60 min
Histogram: 1 0 0 0 0 0 0 0 0 0
Neighs:             36 ave          36 max          36 min
Histogram: 1 0 0 0 0 0 0 0 0 0

Total # of neighbors = 36
Ave neighs/atom = 0.36
Ave special neighs/atom = 1.98
Neighbor list builds = 9821
Dangerous builds = 8265
unfix           nvtSoft
unfix           rampSoft
reset_timestep  0

write_data      ${outputfile_relaxed}
write_data      5_relaxed.data
System init for write_data ...
Generated 0 of 6 mixed pair_coeff terms from geometric mixing rule
WARNING: Communication cutoff 1.3 is shorter than a bond length based estimate of 1.7550000000000001. This may lead to errors. (src/comm.cpp:727)
WARNING: Not all mixed pair coeffs generated from mixing. Use write_data with 'pair ij' option to store all pair coeffs. (src/write_data.cpp:309)

###########################################################################
# Full LJ with Coulomb
######################################################################

# Cutoffs and parameters:
# - Values: Marcel Verkade's Bachelor Thesis
# - Mapping to atom groups: Patrick Onck's paper
# - 1: aliphatic, 2: aromatic, 3: anion, 4: cation
# pair_style	lj/cut/coul/cut <lj_cut_global> <coul_cut_global>
# pair_coeff	<type_1>  <type_2>  <eps>  <sigma>  <r_cut_lj>  <r_cut_coul>

# Problem: Onck's model is much more complex, and Marcel has no sigma reported
# Using sigma=1 randomly

variable		glob_ljeps equal 1.0
variable		glob_ljsig 	equal 1.0
variable		glob_coulcut equal 10.0
variable		att_ljcut equal 2.50
variable		rep_ljcut equal 1.12

pair_style		lj/cut/coul/cut 						${att_ljcut} 	${glob_coulcut}
pair_style		lj/cut/coul/cut 						2.5 	${glob_coulcut}
pair_style		lj/cut/coul/cut 						2.5 	10
pair_coeff		1 1 	${glob_ljeps} 	${glob_ljsig}	${att_ljcut} 	${glob_coulcut}
pair_coeff		1 1 	1 	${glob_ljsig}	${att_ljcut} 	${glob_coulcut}
pair_coeff		1 1 	1 	1	${att_ljcut} 	${glob_coulcut}
pair_coeff		1 1 	1 	1	2.5 	${glob_coulcut}
pair_coeff		1 1 	1 	1	2.5 	10
pair_coeff		1 2 	${glob_ljeps} 	${glob_ljsig}	${att_ljcut} 	${glob_coulcut}
pair_coeff		1 2 	1 	${glob_ljsig}	${att_ljcut} 	${glob_coulcut}
pair_coeff		1 2 	1 	1	${att_ljcut} 	${glob_coulcut}
pair_coeff		1 2 	1 	1	2.5 	${glob_coulcut}
pair_coeff		1 2 	1 	1	2.5 	10
pair_coeff		1 3 	${glob_ljeps} 	${glob_ljsig}	${rep_ljcut} 	${glob_coulcut}
pair_coeff		1 3 	1 	${glob_ljsig}	${rep_ljcut} 	${glob_coulcut}
pair_coeff		1 3 	1 	1	${rep_ljcut} 	${glob_coulcut}
pair_coeff		1 3 	1 	1	1.12 	${glob_coulcut}
pair_coeff		1 3 	1 	1	1.12 	10
pair_coeff		1 4 	${glob_ljeps} 	${glob_ljsig}	${rep_ljcut} 	${glob_coulcut}
pair_coeff		1 4 	1 	${glob_ljsig}	${rep_ljcut} 	${glob_coulcut}
pair_coeff		1 4 	1 	1	${rep_ljcut} 	${glob_coulcut}
pair_coeff		1 4 	1 	1	1.12 	${glob_coulcut}
pair_coeff		1 4 	1 	1	1.12 	10
pair_coeff		2 2 	${glob_ljeps} 	${glob_ljsig}	${att_ljcut} 	${glob_coulcut}
pair_coeff		2 2 	1 	${glob_ljsig}	${att_ljcut} 	${glob_coulcut}
pair_coeff		2 2 	1 	1	${att_ljcut} 	${glob_coulcut}
pair_coeff		2 2 	1 	1	2.5 	${glob_coulcut}
pair_coeff		2 2 	1 	1	2.5 	10
pair_coeff		2 3 	${glob_ljeps} 	${glob_ljsig}	${rep_ljcut} 	${glob_coulcut}
pair_coeff		2 3 	1 	${glob_ljsig}	${rep_ljcut} 	${glob_coulcut}
pair_coeff		2 3 	1 	1	${rep_ljcut} 	${glob_coulcut}
pair_coeff		2 3 	1 	1	1.12 	${glob_coulcut}
pair_coeff		2 3 	1 	1	1.12 	10
pair_coeff		2 4 	${glob_ljeps} 	${glob_ljsig}	${att_ljcut} 	${glob_coulcut}
pair_coeff		2 4 	1 	${glob_ljsig}	${att_ljcut} 	${glob_coulcut}
pair_coeff		2 4 	1 	1	${att_ljcut} 	${glob_coulcut}
pair_coeff		2 4 	1 	1	2.5 	${glob_coulcut}
pair_coeff		2 4 	1 	1	2.5 	10
pair_coeff		3 3 	${glob_ljeps} 	${glob_ljsig}	${rep_ljcut} 	${glob_coulcut}
pair_coeff		3 3 	1 	${glob_ljsig}	${rep_ljcut} 	${glob_coulcut}
pair_coeff		3 3 	1 	1	${rep_ljcut} 	${glob_coulcut}
pair_coeff		3 3 	1 	1	1.12 	${glob_coulcut}
pair_coeff		3 3 	1 	1	1.12 	10
pair_coeff		3 4 	${glob_ljeps} 	${glob_ljsig}	${att_ljcut} 	${glob_coulcut}
pair_coeff		3 4 	1 	${glob_ljsig}	${att_ljcut} 	${glob_coulcut}
pair_coeff		3 4 	1 	1	${att_ljcut} 	${glob_coulcut}
pair_coeff		3 4 	1 	1	2.5 	${glob_coulcut}
pair_coeff		3 4 	1 	1	2.5 	10
pair_coeff		4 4 	${glob_ljeps} 	${glob_ljsig}	${rep_ljcut} 	${glob_coulcut}
pair_coeff		4 4 	1 	${glob_ljsig}	${rep_ljcut} 	${glob_coulcut}
pair_coeff		4 4 	1 	1	${rep_ljcut} 	${glob_coulcut}
pair_coeff		4 4 	1 	1	1.12 	${glob_coulcut}
pair_coeff		4 4 	1 	1	1.12 	10


fix             noDriftRot 	all momentum 10 linear 1 1 1 angular
fix             nvt1 		all nvt temp ${Temp} ${Temp} 0.5
fix             nvt1 		all nvt temp 1 ${Temp} 0.5
fix             nvt1 		all nvt temp 1 1 0.5

# dump          assemble 	all custom 1000 				${outputfile_selfasb} id type xu yu zu vx vy vz
dump            lindump 	all custom ${subsample_rate} 	${outputfile_trajlin} id type xu yu zu vx vy vz
dump            lindump 	all custom 1000 	${outputfile_trajlin} id type xu yu zu vx vy vz
dump            lindump 	all custom 1000 	6_b_trajlin.data id type xu yu zu vx vy vz

run             ${runtime}
run             1000000
Generated 0 of 6 mixed pair_coeff terms from geometric mixing rule
Neighbor list info ...
  update every 1 steps, delay 10 steps, check yes
  max neighbors/atom: 2000, page size: 100000
  master list distance cutoff = 10.3
  ghost atom cutoff = 10.3
  binsize = 5.15, bins = 7 7 7
  1 neighbor lists, perpetual/occasional/extra = 1 0 0
  (1) pair lj/cut/coul/cut, perpetual
      attributes: half, newton on
      pair build: half/bin/newton
      stencil: half/bin/3d
      bin: standard
Per MPI rank memory allocation (min/avg/max) = 7.712 | 7.712 | 7.712 Mbytes
   Step          Temp         Density         Press          TotEng         PotEng         KinEng         E_pair         S/CPU     
         0   1.1904942      0.0023323615  -0.0015784736   21.890108      20.122224      1.7678839     -0.42610951     0            
      1000   1.0355671      0.0023323615   0.0018986909   21.291167      19.75335       1.5378171     -0.72127379     33495.183    
      2000   1.0375205      0.0023323615  -0.0028385078   21.479875      19.939157      1.5407179     -0.65826615     30475.994    
      3000   1.1948524      0.0023323615  -0.00029716197  21.153859      19.379503      1.7743558     -1.0064556      25138.409    
      4000   1.1390146      0.0023323615   0.005227922    20.999029      19.307593      1.6914366     -1.0718015      21016.24     
      5000   1.1097147      0.0023323615  -0.0011593023   20.639018      18.991091      1.6479263     -1.5877365      18494.298    
      6000   0.88490297     0.0023323615  -0.00085209104  20.409741      19.09566       1.3140809     -1.4760549      18532.032    
      7000   1.0324249      0.0023323615   0.0018988414   20.867831      19.33468       1.5331509     -1.2047529      18809.508    
      8000   1.0358872      0.0023323615   0.0011686261   20.697795      19.159502      1.5382925     -1.37001        18965.073    
      9000   0.91072917     0.0023323615  -0.0015563453   20.517248      19.164815      1.3524328     -1.2945981      18769.669    
     10000   1.064083       0.0023323615  -0.0014358907   20.639129      19.058965      1.5801633     -1.4087909      18646.502    
     11000   1.0723109      0.0023323615  -0.0021127262   20.645378      19.052996      1.5923818     -1.418978       18515.668    
     12000   1.0635144      0.0023323615   0.00071400175  20.61521       19.035891      1.5793189     -1.3553629      18382.037    
     13000   0.98716941     0.0023323615   0.0023903042   20.532744      19.066798      1.4659466     -1.4644652      18265.91     
     14000   0.85235241     0.0023323615  -0.0037343103   20.489666      19.223923      1.2657433     -1.3278973      18351.362    
     15000   1.0139039      0.0023323615   0.00043074161  20.266757      18.76111       1.5056473     -1.6888337      18390.233    
     16000   1.1490423      0.0023323615  -0.0011348824   20.717994      19.011666      1.7063278     -1.556142       18453.329    
     17000   1.0334689      0.0023323615  -0.00098035095  20.344305      18.809604      1.5347014     -1.7188288      18340.528    
     18000   1.0184178      0.0023323615  -0.00035669632  20.622017      19.109667      1.5123504     -1.554195       18463.744    
     19000   1.1127716      0.0023323615   0.00020286214  20.610638      18.958172      1.6524658     -1.5195985      18414.977    
     20000   0.79425362     0.0023323615  -0.00035456324  20.234431      19.054964      1.1794666     -1.5655335      18330.932    
     21000   0.93523274     0.0023323615   0.00028126727  20.507556      19.118736      1.3888206     -1.5075851      18432.579    
     22000   1.0001981      0.0023323615   0.0010042745   20.814967      19.329672      1.4852942     -1.1487313      18407.594    
     23000   0.85461882     0.0023323615   0.0044369608   20.660459      19.39135       1.2691089     -1.1224181      18699.45     
     24000   0.9819679      0.0023323615   0.0015826634   20.708781      19.250559      1.4582223     -1.1958533      18765.516    
     25000   0.92344274     0.0023323615  -0.0026952826   20.568466      19.197153      1.3713125     -1.3271974      18302.008    
     26000   0.93742002     0.0023323615   0.0041727352   20.304452      18.912383      1.3920687     -1.6248318      18611.205    
     27000   1.0203639      0.0023323615   0.00019408441  20.44562       18.93038       1.5152404     -1.5584107      18604.503    
     28000   1.095429       0.0023323615   0.0046349693   20.587904      18.961192      1.6267121     -1.4878761      18641.515    
     29000   0.91900207     0.0023323615   0.0017710289   20.292726      18.928008      1.3647181     -1.6430488      18246.72     
     30000   1.0566868      0.0023323615   0.0048841584   20.482027      18.912847      1.5691799     -1.6009325      18205.096    
     31000   0.98682249     0.0023323615   0.0026320912   20.6059        19.140469      1.4654314     -1.4696503      18277.978    
     32000   0.92720365     0.0023323615  -0.0017296237   20.489936      19.113039      1.3768974     -1.4626407      18209.387    
     33000   0.86514477     0.0023323615  -0.0038700035   20.428683      19.143943      1.28474       -1.4007272      18280.389    
     34000   1.0152125      0.0023323615   0.00019623613  20.523152      19.015562      1.5075906     -1.5769539      18330.228    
     35000   0.92341846     0.0023323615  -0.0025990059   20.251566      18.880289      1.3712764     -1.5598445      18259.791    
     36000   1.0186764      0.0023323615   0.0046105063   20.705498      19.192763      1.5127344     -1.3894554      18323.885    
     37000   0.9366449      0.0023323615  -0.0007328854   20.413237      19.022319      1.3909177     -1.4371326      18401.496    
     38000   0.99141861     0.0023323615  -0.0060268768   20.599512      19.127255      1.4722566     -1.3902787      18383.431    
     39000   0.9084138      0.0023323615  -0.0014517784   20.643122      19.294127      1.3489945     -1.2791557      18351.953    
     40000   1.0255209      0.0023323615  -0.0017466319   20.386406      18.863508      1.5228986     -1.593779       18304.398    
     41000   0.86025237     0.0023323615   0.0012438965   20.429032      19.151558      1.2774748     -1.4681951      18377.742    
     42000   0.99184778     0.0023323615  -0.0014729351   20.204662      18.731768      1.472894      -1.7339931      18218.357    
     43000   1.0088908      0.0023323615  -0.001304318    20.731533      19.23333       1.4982029     -1.3798422      18201.497    
     44000   1.0770288      0.0023323615  -0.00038802499  20.715054      19.115666      1.5993878     -1.2999411      18220.635    
     45000   0.96913662     0.0023323615   0.0017757877   20.243015      18.803847      1.4391679     -1.6496785      17819.296    
     46000   1.1336497      0.0023323615  -0.00065230304  20.642666      18.959196      1.6834699     -1.5664338      18205.74     
     47000   0.90631864     0.0023323615  -0.0052068615   20.506658      19.160775      1.3458832     -1.4751892      18048.621    
     48000   1.1009947      0.0023323615  -0.0012014123   20.485461      18.850484      1.6349771     -1.5475384      18326.257    
     49000   1.1349392      0.0023323615  -0.0025651713   20.557601      18.872216      1.6853847     -1.5837166      18381.833    
     50000   1.0253934      0.0023323615   0.00076106335  20.748967      19.226257      1.5227092     -1.4155548      18205.634    
     51000   1.0217699      0.0023323615   0.0023429454   20.440651      18.923323      1.5173284     -1.6230413      18149.11     
     52000   0.96151804     0.0023323615   0.00084283964  20.369729      18.941875      1.4278543     -1.5448614      18119.22     
     53000   1.1183864      0.0023323615   0.0046005122   20.643296      18.982492      1.6608037     -1.6112782      18409.621    
     54000   0.87788752     0.0023323615  -0.0018898451   20.143251      18.839588      1.303663      -1.636001       18320.293    
     55000   0.93073366     0.0023323615  -0.0019762639   20.348699      18.96656       1.3821395     -1.4941653      18362.305    
     56000   0.95368495     0.0023323615  -0.0022445452   20.601186      19.184964      1.4162221     -1.3544265      18378.029    
     57000   0.93121031     0.0023323615  -0.0019732722   20.467274      19.084426      1.3828473     -1.5058173      18409.444    
     58000   0.9138035      0.0023323615  -0.0032248337   20.374362      19.017363      1.3569982     -1.5174752      18204.624    
     59000   1.1217597      0.0023323615  -0.00080582636  20.62049       18.954677      1.6658131     -1.5869644      18133.016    
     60000   1.0842659      0.0023323615  -0.00054615206  20.643248      19.033113      1.6101349     -1.5585967      18214.265    
     61000   1.1165477      0.0023323615  -0.0028562952   20.815888      19.157815      1.6580734     -1.495021       18128.547    
     62000   0.93782697     0.0023323615   0.0010680857   20.63967       19.246997      1.3926731     -1.3248968      18385.395    
     63000   0.93920564     0.0023323615   0.006951405    20.539903      19.145183      1.3947204     -1.3773961      18405.31     
     64000   0.93889035     0.0023323615   0.0027806812   20.633282      19.23903       1.3942522     -1.1744009      18357.063    
     65000   0.88431012     0.0023323615  -0.0014394145   20.662535      19.349335      1.3132005     -1.2268458      18400.993    
     66000   1.0078504      0.0023323615  -0.00043950509  20.976986      19.480328      1.4966579     -0.99420851     18418.96     
     67000   0.99202169     0.0023323615   0.0015175672   20.905926      19.432773      1.4731522     -1.1070696      18553.421    
     68000   1.075006       0.0023323615  -0.0026287262   20.929113      19.332729      1.5963839     -1.0526558      18875.323    
     69000   0.95618142     0.0023323615   0.0025506208   20.646367      19.226438      1.4199294     -1.3031856      18708.079    
     70000   1.0898079      0.0023323615  -0.0013207129   20.817281      19.198916      1.6183647     -1.3307958      18399.003    
     71000   1.2489223      0.0023323615  -0.0028598975   21.009427      19.154778      1.8546496     -1.3803757      18456.543    
     72000   1.0494694      0.0023323615   0.00044145855  20.845022      19.28656       1.5584621     -1.1534066      18438.889    
     73000   0.87449915     0.0023323615  -0.0028093715   20.590101      19.291469      1.2986312     -1.11991        18454.465    
     74000   0.90204864     0.0023323615  -0.0032107563   20.550722      19.21118       1.3395422     -1.2767533      18845.198    
     75000   0.98465472     0.0023323615   7.0543638e-05  20.664779      19.202567      1.4622123     -1.2990793      18529.29     
     76000   1.0973595      0.0023323615  -0.001827859    20.849667      19.220088      1.6295789     -1.4477936      18341.924    
     77000   1.0525827      0.0023323615  -0.00012771307  20.645137      19.082051      1.5630853     -1.3681596      18407.76     
     78000   1.1064904      0.0023323615   0.0035815225   20.707535      19.064396      1.6431383     -1.3383211      18468.493    
     79000   0.88859057     0.0023323615  -0.00064035773  20.163811      18.844254      1.319557      -1.7123857      18119.303    
     80000   1.1111599      0.0023323615   0.0013618421   20.600532      18.95046       1.6500725     -1.6184175      18178.018    
     81000   0.78942159     0.0023323615   0.0036824956   20.011018      18.838727      1.1722911     -1.695137       17922.703    
     82000   0.95780544     0.0023323615   0.0027307679   20.507166      19.084825      1.4223411     -1.4632897      18216.991    
     83000   0.89133371     0.0023323615  -0.0016754815   20.252152      18.928522      1.3236306     -1.6235357      18264.352    
     84000   1.109436       0.0023323615  -0.00075393202  20.516421      18.868908      1.6475124     -1.6580982      18381.878    
     85000   1.1517651      0.0023323615   0.0036851353   20.780533      19.070161      1.7103711     -1.6236843      18383.106    
     86000   0.93728441     0.0023323615  -0.00052183757  20.682799      19.290931      1.3918673     -1.3092892      18333.114    
     87000   0.99596553     0.0023323615   0.0041499622   20.252802      18.773793      1.4790088     -1.7146389      18348.751    
     88000   0.81482511     0.0023323615  -0.0043071185   20.494988      19.284973      1.2100153     -1.2635435      18377.332    
     89000   0.95911005     0.0023323615  -0.00087410484  20.394859      18.970581      1.4242784     -1.5905058      18292.614    
     90000   1.0041347      0.0023323615   2.9379022e-05  20.485327      18.994187      1.4911401     -1.5043137      18283.958    
     91000   0.93674246     0.0023323615   0.00033136881  20.513239      19.122176      1.3910625     -1.400413       18392.622    
     92000   0.94486592     0.0023323615   0.0073789075   20.386803      18.983677      1.4031259     -1.6222973      18682.269    
     93000   0.83132377     0.0023323615   0.0053366635   20.361519      19.127003      1.2345158     -1.4777864      18434.863    
     94000   1.037988       0.0023323615   0.00098545319  20.651116      19.109703      1.5414122     -1.4209579      18333.299    
     95000   1.029407       0.0023323615  -0.00040039047  20.686132      19.157463      1.5286694     -1.3331227      18396.347    
     96000   0.96611437     0.0023323615  -7.968265e-05   20.413559      18.97888       1.4346798     -1.5590807      18376.723    
     97000   0.90743246     0.0023323615   0.0031385853   20.397386      19.049849      1.3475372     -1.4764606      18296.349    
     98000   1.0140139      0.0023323615   0.00066233744  20.587882      19.082071      1.5058107     -1.4899677      18030.721    
     99000   1.147739       0.0023323615  -0.004109362    21.047195      19.342802      1.7043925     -1.3053889      18112.48     
    100000   1.0348656      0.0023323615   0.0038165676   20.417031      18.880256      1.5367755     -1.6220402      18310.235    
    101000   1.170483       0.0023323615   0.0020218991   20.592662      18.854495      1.7381672     -1.5966375      18291.96     
    102000   1.1072152      0.0023323615   0.0001446708   20.610486      18.966271      1.6442146     -1.5072027      18401.54     
    103000   0.98022239     0.0023323615   0.00056316892  20.692203      19.236573      1.4556303     -1.3089012      18293.482    
    104000   1.1013343      0.0023323615   0.00015633322  20.780704      19.145223      1.6354814     -1.4572762      18307.995    
    105000   0.98713387     0.0023323615  -0.00084764858  20.351609      18.885715      1.4658938     -1.7315212      18344.553    
    106000   0.92111695     0.0023323615  -0.0014075494   20.214886      18.847028      1.3678587     -1.5950483      18272.859    
    107000   1.0907644      0.0023323615   0.00026062024  20.477745      18.85796       1.6197851     -1.65769        18258.329    
    108000   0.95765412     0.0023323615   0.0035025975   20.24627       18.824154      1.4221164     -1.6020624      18240.234    
    109000   1.0977722      0.0023323615   0.00067259394  20.758268      19.128077      1.6301917     -1.5785561      18492.403    
    110000   1.0296644      0.0023323615  -0.00081921529  20.616296      19.087244      1.5290517     -1.508227       18503.641    
    111000   0.9530759      0.0023323615  -4.717992e-05   20.53384       19.118522      1.4153177     -1.3492179      18402.171    
    112000   0.95432401     0.0023323615   0.0037940472   20.490161      19.07299       1.4171712     -1.3995763      18359.336    
    113000   1.0427114      0.0023323615  -0.0016210527   20.474225      18.925798      1.5484264     -1.5496004      18267.642    
    114000   0.84995368     0.0023323615  -0.00067416967  20.26063       18.998448      1.2621812     -1.5462492      18235.596    
    115000   0.97272841     0.0023323615   0.0045969589   20.094173      18.649671      1.4445017     -1.7668541      18203.831    
    116000   0.87803321     0.0023323615   0.002218969    20.298805      18.994925      1.3038793     -1.5040816      18446.352    
    117000   1.0569376      0.0023323615  -0.0034544056   20.480877      18.911325      1.5695523     -1.6219572      18374.846    
    118000   1.0394494      0.0023323615   0.00063250292  20.796639      19.253056      1.5435823     -1.3730814      18316.36     
    119000   1.0169425      0.0023323615  -0.0021111239   20.62153       19.111371      1.5101596     -1.4460588      18356.972    
    120000   1.0914002      0.0023323615  -0.00091069018  20.455496      18.834767      1.6207293     -1.6934857      18362.527    
    121000   0.99269296     0.0023323615   0.00011367502  20.560157      19.086008      1.474149      -1.5271044      18447.364    
    122000   1.0392889      0.0023323615   0.0032861686   20.752602      19.209258      1.543344      -1.3499014      18354.693    
    123000   1.0202803      0.0023323615   0.0041623627   20.725047      19.20993       1.5151162     -1.3704175      18470.212    
    124000   0.99526663     0.0023323615   0.00067421088  20.280209      18.802238      1.477971      -1.6751579      18704.251    
    125000   0.85681861     0.0023323615  -0.0020750297   20.464694      19.192319      1.2723756     -1.3362898      18660.226    
    126000   0.91514238     0.0023323615  -0.0041568136   20.261885      18.902898      1.3589864     -1.565655       18459.387    
    127000   1.0266101      0.0023323615   0.0016599427   20.75926       19.234744      1.524516      -1.3733276      18175.731    
    128000   0.99660693     0.0023323615  -0.0012464212   20.597009      19.117048      1.4799613     -1.504057       18335.865    
    129000   0.97772969     0.0023323615   0.0029413319   20.670945      19.219016      1.4519286     -1.4138847      18256.295    
    130000   1.0360691      0.0023323615  -0.0035626779   20.30906       18.770497      1.5385626     -1.7020176      18151.017    
    131000   1.0214076      0.0023323615  -0.0017713374   20.510758      18.993968      1.5167903     -1.4920753      18234.902    
    132000   1.0578661      0.0023323615   0.0016533913   20.279356      18.708425      1.5709312     -1.8485664      18334.626    
    133000   1.0394326      0.0023323615   0.0010121333   20.45306       18.909502      1.5435574     -1.5916066      18351.74     
    134000   0.99502193     0.0023323615  -0.0010183911   20.355672      18.878064      1.4776076     -1.6161259      18469.682    
    135000   1.0022121      0.0023323615   0.0031232951   20.162128      18.673843      1.4882849     -1.8699493      18298.006    
    136000   0.91082443     0.0023323615   7.6067693e-05  20.38668       19.034106      1.3525743     -1.5544978      18242.134    
    137000   1.1388941      0.0023323615   0.0029528048   20.467958      18.7767        1.6912578     -1.8022667      18156.257    
    138000   1.0109055      0.0023323615   0.00046048121  20.367887      18.866692      1.5011946     -1.6988293      18202.725    
    139000   0.92264123     0.0023323615  -0.0002565664   20.247885      18.877763      1.3701222     -1.5957235      18251.124    
    140000   0.98320995     0.0023323615   0.0028436345   20.266585      18.806518      1.4600668     -1.7111703      18284.899    
    141000   0.90884351     0.0023323615   0.00029641775  20.228551      18.878919      1.3496326     -1.6570523      18300.173    
    142000   0.99754656     0.0023323615  -0.00023522051  20.306494      18.825138      1.4813566     -1.5415006      18260.112    
    143000   1.0207596      0.0023323615  -0.0016360986   20.344777      18.828949      1.5158281     -1.5960374      18329.124    
    144000   0.86111923     0.0023323615   0.00091054202  20.219668      18.940906      1.2787621     -1.5541023      18496.834    
    145000   0.95791738     0.0023323615   0.00075889566  20.479304      19.056796      1.4225073     -1.4717019      18727.149    
    146000   1.0969457      0.0023323615   0.0027837401   20.765622      19.136658      1.6289643     -1.4343994      18678.73     
    147000   0.8890001      0.0023323615  -0.0013807615   20.138507      18.818341      1.3201652     -1.7417917      18464.243    
    148000   1.0061263      0.0023323615   0.0017432445   20.564713      19.070616      1.4940975     -1.4497796      18289.168    
    149000   0.9665627      0.0023323615   0.00013292872  20.471665      19.036319      1.4353456     -1.5655529      18305.782    
    150000   0.96950367     0.0023323615   0.0047014237   20.600768      19.161055      1.439713      -1.3802243      18309.297    
    151000   0.91708049     0.0023323615  -1.4046252e-05  20.375269      19.013405      1.3618645     -1.4255472      18328.727    
    152000   1.0690651      0.0023323615  -0.0030356842   20.593661      19.006099      1.5875616     -1.6463736      18268.25     
    153000   0.8370623      0.0023323615  -0.000652392    20.163394      18.920357      1.2430375     -1.5627106      18182.061    
    154000   1.0390349      0.0023323615  -0.00015531043  20.586092      19.043126      1.5429668     -1.512733       18314.848    
    155000   1.0492861      0.0023323615   0.00069354718  20.362722      18.804532      1.5581898     -1.6799592      18215.837    
    156000   0.91293641     0.0023323615  -0.001300629    20.513965      19.158254      1.3557106     -1.2870176      18307.776    
    157000   0.98551826     0.0023323615  -0.00075345632  20.480188      19.016693      1.4634946     -1.4402331      18254.642    
    158000   0.92540525     0.0023323615   0.00021011597  20.37348       18.999253      1.3742268     -1.539991       18377.038    
    159000   0.9758692      0.0023323615  -0.0012433848   20.009556      18.56039       1.4491658     -1.9115852      18147.918    
    160000   1.1292185      0.0023323615   0.0002181807   20.747573      19.070684      1.6768895     -1.483749       18254.245    
    161000   1.0592172      0.0023323615  -0.0035773539   20.651329      19.078392      1.5729375     -1.4522262      18531.585    
    162000   0.95430331     0.0023323615   0.003723677    20.093477      18.676336      1.4171404     -1.6666874      18476.359    
    163000   1.0431509      0.0023323615   0.00028227525  20.756439      19.20736       1.5490791     -1.4632924      18429.669    
    164000   1.0435201      0.0023323615  -0.0004511256   20.447419      18.897792      1.5496274     -1.6641883      18516.245    
    165000   1.0770133      0.0023323615  -0.0013673946   20.701502      19.102138      1.5993648     -1.3551279      18410.759    
    166000   1.1051147      0.0023323615   0.0016759456   20.604835      18.96374       1.6410953     -1.5372138      18460.456    
    167000   0.95906512     0.0023323615  -0.0020174435   20.393775      18.969564      1.4242117     -1.5612177      18193.919    
    168000   0.90395044     0.0023323615   0.00050186401  20.104311      18.761945      1.3423664     -1.6749814      18319.375    
    169000   0.81450176     0.0023323615  -0.0022728294   20.21179       19.002255      1.2095351     -1.5656745      18240.334    
    170000   0.97489506     0.0023323615  -0.00098536046  20.594274      19.146555      1.4477192     -1.2786674      18312.905    
    171000   1.0268698      0.0023323615   0.0016783525   20.457898      18.932997      1.5249016     -1.5584375      18517.489    
    172000   0.96265342     0.0023323615  -0.003379272    20.369433      18.939892      1.4295403     -1.6600073      18383.37     
    173000   0.95911616     0.0023323615   0.0016243466   20.289102      18.864814      1.4242875     -1.728373       18174.45     
    174000   0.7720183      0.0023323615  -0.0031845562   19.902168      18.755721      1.1464472     -1.7470666      18229.471    
    175000   1.048109       0.0023323615   0.0011615428   20.531305      18.974863      1.5564418     -1.6773084      18349.264    
    176000   1.095778       0.0023323615   0.0001862626   20.568095      18.940865      1.6272304     -1.5506298      18640.857    
    177000   0.94451585     0.0023323615   0.00097386382  20.159916      18.75731       1.402606      -1.6959627      18746.571    
    178000   0.9024766      0.0023323615  -0.0026781017   20.187874      18.847696      1.3401778     -1.7608926      18520.338    
    179000   1.0261075      0.0023323615  -0.0032974417   20.424896      18.901127      1.5237697     -1.5990592      18414.736    
    180000   0.84619946     0.0023323615  -0.0040629246   20.542961      19.286355      1.2566062     -1.3343795      18232.185    
    181000   0.98263654     0.0023323615  -0.00052290325  20.202553      18.743338      1.4592153     -1.7529376      18196.855    
    182000   0.99270636     0.0023323615   0.0034271126   20.45701       18.982841      1.4741689     -1.4811301      18237.568    
    183000   1.0255728      0.0023323615   0.0050124673   20.473337      18.950362      1.5229755     -1.6118901      18262.404    
    184000   0.94977413     0.0023323615  -0.00066646319  20.303201      18.892786      1.4104146     -1.5787869      18146.334    
    185000   0.98486717     0.0023323615   0.00091637601  20.581032      19.118504      1.4625277     -1.4859073      18223.377    
    186000   0.96507454     0.0023323615   0.0023539449   20.563908      19.130773      1.4331357     -1.4865755      18224.322    
    187000   1.0871811      0.0023323615   0.0036802128   20.568327      18.953863      1.614464      -1.5906788      18314.095    
    188000   1.0440738      0.0023323615  -0.0005597277   20.701034      19.150585      1.5504496     -1.5165815      18283.593    
    189000   0.99498162     0.0023323615  -0.0050366517   20.473142      18.995594      1.4775477     -1.6821777      18375.576    
    190000   0.96071248     0.0023323615  -0.00081173167  20.341802      18.915144      1.426658      -1.5196126      18156.141    
    191000   1.0556949      0.0023323615   0.0014868525   20.557574      18.989867      1.5677069     -1.6273965      18275.93     
    192000   1.1153414      0.0023323615   0.001213367    20.691824      19.035542      1.6562819     -1.4421451      18153.394    
    193000   0.94396245     0.0023323615  -0.0066174042   20.813416      19.411632      1.4017842     -1.22781        18290.375    
    194000   0.97161469     0.0023323615   0.0010632328   20.201017      18.758169      1.4428478     -1.7645242      18340.464    
    195000   1.0408154      0.0023323615   0.0021061083   20.95183       19.406219      1.5456109     -1.1472323      18529.676    
    196000   1.2052084      0.0023323615  -0.0026677887   21.014423      19.224688      1.7897345     -1.3026337      18529.81     
    197000   1.0332786      0.0023323615  -0.00018244318  20.812815      19.278396      1.5344188     -1.2646192      18347.237    
    198000   0.9227575      0.0023323615   0.0011613642   20.302882      18.932587      1.3702949     -1.5850456      18415.748    
    199000   0.9326873      0.0023323615   0.0014079324   20.496341      19.111301      1.3850406     -1.4018424      18462.453    
    200000   1.0108934      0.0023323615   0.0037546015   20.528633      19.027457      1.5011767     -1.5095938      18313.967    
    201000   1.0075797      0.0023323615  -0.00062479683  20.49339       18.997134      1.4962558     -1.4808168      18334.619    
    202000   0.96335213     0.0023323615   0.00074705107  20.346049      18.915471      1.4305779     -1.5937999      18398.935    
    203000   1.0090383      0.0023323615   0.0014573595   20.690259      19.191837      1.4984219     -1.3648572      18421.435    
    204000   0.92608272     0.0023323615  -0.00099761475  20.503736      19.128503      1.3752328     -1.4405484      18488.827    
    205000   1.1651285      0.0023323615   0.0019151606   20.512216      18.782         1.7302158     -1.7825708      18505.854    
    206000   1.1152868      0.0023323615  -0.00080713503  20.6224        18.966199      1.6562009     -1.5139183      18572.243    
    207000   1.0694226      0.0023323615   0.0011405116   20.662796      19.074703      1.5880925     -1.3959786      18555.59     
    208000   0.97508531     0.0023323615   0.00051272213  20.427479      18.979477      1.4480017     -1.5974989      18581.284    
    209000   0.89232174     0.0023323615  -0.003015657    20.561315      19.236218      1.3250978     -1.3579382      18498.7      
    210000   1.0645608      0.0023323615   0.0019269003   20.564384      18.983511      1.5808728     -1.4389086      18366.234    
    211000   1.0808817      0.0023323615   0.00049080267  20.627112      19.022003      1.6051093     -1.4723222      18296.872    
    212000   1.0231854      0.0023323615   0.00055994296  20.691921      19.172491      1.5194303     -1.3469045      18225.217    
    213000   0.96346058     0.0023323615  -0.00027931786  20.629755      19.199016      1.430739      -1.2828694      18378.605    
    214000   0.80886279     0.0023323615  -0.0011977941   20.316275      19.115113      1.2011612     -1.3810361      18517.376    
    215000   1.0601759      0.0023323615  -0.00078797115  20.630136      19.055775      1.5743612     -1.45557        18406.42     
    216000   1.0059513      0.0023323615  -0.0030368924   20.644424      19.150586      1.4938377     -1.3430529      18281.865    
    217000   0.94036721     0.0023323615   0.0013065678   20.453623      19.057177      1.3964453     -1.5059679      18365.734    
    218000   1.1175139      0.0023323615   0.0035774281   20.999197      19.339689      1.6595082     -1.3323764      18308.055    
    219000   0.98727028     0.0023323615   0.0016922147   20.703576      19.23748       1.4660964     -1.4360757      18471.343    
    220000   0.97206718     0.0023323615  -0.0024133751   20.628076      19.184556      1.4435198     -1.2973542      18409.547    
    221000   1.0248035      0.0023323615   0.00215243     20.530606      19.008772      1.5218333     -1.3869152      18598.2      
    222000   0.84362639     0.0023323615  -0.0012750439   20.472552      19.219767      1.2527852     -1.2458926      18475.231    
    223000   0.9347076      0.0023323615  -0.0037300213   20.718342      19.330301      1.3880408     -1.1581992      18622.021    
    224000   0.99359319     0.0023323615   0.001931132    20.614099      19.138613      1.4754859     -1.3800921      18775.625    
    225000   0.90918657     0.0023323615  -0.00067781812  20.407499      19.057357      1.3501421     -1.3310577      18529.397    
    226000   0.97721516     0.0023323615  -0.0027112624   20.913593      19.462429      1.4511645     -1.0751769      18447.446    
    227000   1.2446956      0.0023323615  -0.00015974338  21.178112      19.329739      1.848373      -1.2425356      18537.274    
    228000   1.0906877      0.0023323615  -0.00038200841  20.807778      19.188107      1.6196712     -1.3355737      18386.232    
    229000   0.93839758     0.0023323615  -0.0044835793   20.224475      18.830955      1.3935204     -1.670967       18308.82     
    230000   1.0050028      0.0023323615   0.0010928389   20.679567      19.187137      1.4924292     -1.4836908      18297.459    
    231000   1.1286849      0.0023323615  -0.00086540568  20.614137      18.93804       1.6760971     -1.5618623      18321.524    
    232000   0.821731       0.0023323615  -0.00083117615  20.628266      19.407995      1.2202705     -1.1818287      18654.015    
    233000   0.96508669     0.0023323615  -0.0013186999   20.665363      19.232209      1.4331537     -1.3712972      18481.046    
    234000   0.88064555     0.0023323615  -0.00071331788  20.379596      19.071837      1.3077586     -1.400083       18263.056    
    235000   1.0730639      0.0023323615  -0.0020153555   20.346822      18.753322      1.5934999     -1.620673       18308.196    
    236000   1.0811816      0.0023323615   9.3315193e-05  20.532077      18.926522      1.6055547     -1.6439689      18372.015    
    237000   0.86033981     0.0023323615   0.0011705421   20.10948       18.831876      1.2776046     -1.6557074      18341.135    
    238000   1.0417399      0.0023323615   0.0015579046   20.725711      19.178727      1.5469837     -1.4627619      18357.536    
    239000   1.0575918      0.0023323615   0.0023210567   20.584462      19.013939      1.5705238     -1.5052829      18383.641    
    240000   0.77126202     0.0023323615  -0.0012670152   20.050805      18.90548       1.1453241     -1.6259085      18401.037    
    241000   0.90351581     0.0023323615  -0.0010943197   20.381476      19.039755      1.341721      -1.4966209      18226.049    
    242000   0.99838709     0.0023323615   0.001470949    20.392512      18.909907      1.4826048     -1.6747569      18559.161    
    243000   1.0311077      0.0023323615   0.0012765249   20.522641      18.991446      1.531195      -1.5602586      18612.999    
    244000   1.1136028      0.0023323615  -0.0019607867   20.402618      18.748917      1.6537001     -1.7445858      18447.944    
    245000   0.88744654     0.0023323615   0.0023345107   20.269761      18.951903      1.3178581     -1.6341566      18262.551    
    246000   1.006452       0.0023323615  -0.0026837348   20.581719      19.087138      1.4945812     -1.4926179      18331.73     
    247000   0.80239214     0.0023323615   0.0029955771   20.447441      19.255888      1.1915523     -1.2931321      18303.546    
    248000   1.0779343      0.0023323615  -0.0028299524   20.654253      19.05352       1.6007324     -1.4857805      18383.756    
    249000   1.0018199      0.0023323615  -2.5674565e-05  20.19177       18.704068      1.4877026     -1.7919353      18311.528    
    250000   0.99501777     0.0023323615  -0.0033855501   20.483219      19.005617      1.4776014     -1.524252       18284.075    
    251000   0.81332718     0.0023323615   0.0025102934   20.067572      18.859781      1.2077909     -1.6188331      18364.703    
    252000   0.89825365     0.0023323615   0.00088765004  20.293695      18.959789      1.3339067     -1.5035396      18440.654    
    253000   0.96296294     0.0023323615  -0.00036931606  20.822385      19.392385      1.43          -1.2248463      18487.834    
    254000   1.0047558      0.0023323615   0.0011636626   20.513911      19.021849      1.4920624     -1.3884663      18391.51     
    255000   0.96208175     0.0023323615  -0.0031637649   20.365785      18.937094      1.4286914     -1.4683296      18414.926    
    256000   1.0065511      0.0023323615   0.0033437885   20.59163       19.096902      1.4947284     -1.439264       18347.986    
    257000   1.0570629      0.0023323615  -0.0016702685   20.462107      18.892369      1.5697384     -1.6975598      18356.82     
    258000   0.95217328     0.0023323615  -0.00063971776  20.281111      18.867133      1.4139773     -1.5824999      18248.852    
    259000   1.0102267      0.0023323615  -0.00481479     20.297667      18.79748       1.5001866     -1.5883587      18136.054    
    260000   0.83809373     0.0023323615   0.0033128852   20.264126      19.019557      1.2445692     -1.4668665      18363.038    
    261000   1.0026221      0.0023323615  -0.00013360176  20.45104       18.962147      1.4888939     -1.6413605      18460.213    
    262000   1.0007812      0.0023323615  -0.0033390547   20.643545      19.157385      1.48616       -1.3699566      18443.073    
    263000   0.95557346     0.0023323615  -0.00026610849  20.874119      19.455093      1.4190266     -1.0473493      18774.915    
    264000   1.0775292      0.0023323615   0.002803224    20.656452      19.056321      1.6001309     -1.4383671      18385.263    
    265000   1.0923944      0.0023323615   0.0053028561   20.713663      19.091458      1.6222056     -1.4919573      18265.603    
    266000   0.85456939     0.0023323615  -0.001140076    20.232357      18.963321      1.2690355     -1.4870665      18114.969    
    267000   0.94261967     0.0023323615   0.00038160316  20.262173      18.862383      1.3997902     -1.5943405      18240.734    
    268000   1.0653998      0.0023323615   0.00090058941  20.883832      19.301713      1.5821186     -1.3333236      18091.607    
    269000   1.0625449      0.0023323615  -0.0024888906   20.790684      19.212805      1.5778791     -1.4793126      18212.706    
    270000   0.93657386     0.0023323615  -0.0019852606   20.641213      19.2504        1.3908122     -1.3432146      18222.864    
    271000   1.0184496      0.0023323615   0.00038625464  20.757041      19.244644      1.5123977     -1.3714058      18263.894    
    272000   0.98504744     0.0023323615   0.00066048376  20.565657      19.102862      1.4627954     -1.3322735      18284.963    
    273000   0.9436777      0.0023323615  -0.00017445739  20.26663       18.865268      1.4013614     -1.5845052      18302.27     
    274000   1.0607587      0.0023323615   0.00082750655  20.559955      18.984729      1.5752267     -1.5748005      18284.454    
    275000   1.1077781      0.0023323615   0.00074318234  20.498978      18.853928      1.6450505     -1.7100781      18506.18     
    276000   1.0338573      0.0023323615   0.0023333934   20.513349      18.978071      1.535278      -1.4341905      18190.394    
    277000   0.98603707     0.0023323615   0.0010688915   20.542354      19.078088      1.464265      -1.383127       18260.817    
    278000   1.0821521      0.0023323615  -0.0010866158   20.614768      19.007772      1.6069959     -1.5710508      18101.85     
    279000   1.0317705      0.0023323615   0.00077569129  20.429586      18.897407      1.5321792     -1.6442495      18208.463    
    280000   0.95343562     0.0023323615  -0.0039457752   20.3038        18.887948      1.4158519     -1.5247937      18031.796    
    281000   1.1156244      0.0023323615   0.0054200745   20.503083      18.846381      1.6567022     -1.5737338      18303.851    
    282000   0.99357659     0.0023323615  -0.00080702666  20.485762      19.010301      1.4754612     -1.4380497      18545.95     
    283000   1.0624037      0.0023323615  -0.0009208412   20.305766      18.728097      1.5776696     -1.6595638      18298.228    
    284000   0.95989543     0.0023323615  -0.0002179205   20.301936      18.876492      1.4254447     -1.6430128      18256.298    
    285000   1.0524627      0.0023323615  -0.00052920735  20.579657      19.01675       1.5629071     -1.4848585      18451.187    
    286000   1.0373059      0.0023323615  -0.0036970104   20.426355      18.885956      1.5403993     -1.5543156      18338.456    
    287000   1.0607538      0.0023323615  -0.0016041654   20.516335      18.941115      1.5752194     -1.7234382      18278.507    
    288000   1.1206408      0.0023323615   0.002688686    20.559263      18.895112      1.6641515     -1.6441357      18153.701    
    289000   0.98225235     0.0023323615  -0.0017816959   20.453756      18.995111      1.4586447     -1.6050377      18304.372    
    290000   0.97093507     0.0023323615  -0.00096386893  20.309         18.867162      1.4418386     -1.6930326      18404.607    
    291000   0.96011474     0.0023323615   0.0048910774   20.417018      18.991247      1.4257704     -1.5902181      18600.772    
    292000   0.97302498     0.0023323615  -0.0014319159   20.387075      18.942133      1.4449421     -1.6893484      18492.438    
    293000   0.94467936     0.0023323615   0.0002774095   20.230798      18.827949      1.4028488     -1.5973072      18541.768    
    294000   1.0799171      0.0023323615   0.0021721191   20.307468      18.703791      1.6036769     -1.856074       18629.431    
    295000   0.97161704     0.0023323615  -0.00078144604  20.327863      18.885012      1.4428513     -1.6144326      18536.713    
    296000   0.90064697     0.0023323615   0.00019644711  20.375593      19.038132      1.3374608     -1.4244453      18644.227    
    297000   1.0369191      0.0023323615   0.0018876744   20.494883      18.955058      1.5398248     -1.5794292      18594.888    
    298000   1.0060275      0.0023323615   0.0011022772   20.587452      19.093502      1.4939508     -1.4550433      18499.906    
    299000   1.0683453      0.0023323615   0.0019262214   20.701872      19.115379      1.5864928     -1.4758119      18574.427    
    300000   1.0494881      0.0023323615  -0.0024271896   20.565059      19.00657       1.5584899     -1.506104       18635.89     
    301000   0.91666194     0.0023323615   0.00041495496  20.350056      18.988813      1.361243      -1.486526       18511.51     
    302000   1.1027069      0.0023323615   0.0055682976   20.490499      18.852979      1.6375197     -1.5247298      18454.145    
    303000   1.0449354      0.0023323615  -0.002516509    20.537403      18.985674      1.5517291     -1.4692775      18283.121    
    304000   1.1553407      0.0023323615  -0.0014148469   20.733905      19.018224      1.715681      -1.5627545      18514.954    
    305000   0.90898016     0.0023323615  -0.00066698091  20.622039      19.272204      1.3498355     -1.2304788      18705.947    
    306000   1.0966579      0.0023323615  -0.0004655243   20.898202      19.269665      1.628537      -1.3772861      18737.136    
    307000   1.0609591      0.0023323615  -0.0025039918   20.364728      18.789204      1.5755243     -1.7006736      18359.008    
    308000   1.0014959      0.0023323615   0.00032736894  20.638828      19.151607      1.4872215     -1.4554037      18059.822    
    309000   1.1932719      0.0023323615  -0.0027723049   20.920467      19.148459      1.7720087     -1.4245328      18220.07     
    310000   0.92905084     0.0023323615  -0.0025232589   20.344871      18.965231      1.3796405     -1.5434538      18260.099    
    311000   1.045327       0.0023323615  -0.0043366097   20.48344       18.93113       1.5523106     -1.5208953      18266.663    
    312000   1.0030179      0.0023323615   0.00056097461  20.774582      19.285101      1.4894816     -1.389995       18359.575    
    313000   0.92569708     0.0023323615   0.0020461874   20.493709      19.119049      1.3746602     -1.3922924      18410.242    
    314000   1.0680234      0.0023323615   0.00083728143  20.568215      18.9822        1.5860148     -1.5183401      18293.535    
    315000   0.88430943     0.0023323615  -0.0030407427   20.718872      19.405672      1.3131995     -1.2704263      18406.508    
    316000   0.96169478     0.0023323615  -3.1073539e-05  20.576986      19.148869      1.4281167     -1.4119753      18275.502    
    317000   1.0269735      0.0023323615   0.0017510185   20.70105       19.175994      1.5250556     -1.3531815      18445.622    
    318000   0.92058824     0.0023323615   0.0023725412   20.164866      18.797793      1.3670735     -1.5985778      18320.034    
    319000   1.0545962      0.0023323615  -0.0052160258   20.589138      19.023063      1.5660754     -1.4984722      18296.684    
    320000   1.0576338      0.0023323615  -0.0032176755   20.381115      18.810529      1.5705861     -1.709946       18297.446    
    321000   1.0441952      0.0023323615   0.0041208043   20.650535      19.099905      1.5506298     -1.4719238      18188.959    
    322000   0.98064602     0.0023323615   0.0055720084   20.41861       18.962351      1.4562593     -1.575681       18257.788    
    323000   1.0611002      0.0023323615   0.0019514614   20.463578      18.887844      1.5757338     -1.5831593      18110.459    
    324000   1.0384036      0.0023323615  -0.0010047648   20.425697      18.883668      1.5420294     -1.516451       18140.738    
    325000   1.195155       0.0023323615  -0.0010438269   20.565292      18.790487      1.7748052     -1.6864336      18138.479    
    326000   0.97626986     0.0023323615   0.0011291183   20.542193      19.092432      1.4497607     -1.4787355      18189.868    
    327000   0.97584432     0.0023323615  -0.0045860821   20.525827      19.076698      1.4491288     -1.3821292      18278.909    
    328000   1.0044955      0.0023323615   0.0019070663   20.542013      19.050337      1.4916759     -1.4429963      18376.906    
    329000   1.0840639      0.0023323615   0.00041394493  20.575621      18.965787      1.6098349     -1.5752442      18476.958    
    330000   0.96111331     0.0023323615   0.00043177679  20.190857      18.763604      1.4272533     -1.6918854      18366.457    
    331000   0.98040869     0.0023323615  -0.0022931293   20.377889      18.921983      1.4559069     -1.6263356      18404.556    
    332000   0.97486346     0.0023323615  -0.0014920365   20.27626       18.828587      1.4476722     -1.749323       18520.32     
    333000   0.84553921     0.0023323615  -0.0063084387   20.266119      19.010494      1.2556257     -1.7054804      18261.292    
    334000   0.90561791     0.0023323615  -0.0031169411   20.280426      18.935584      1.3448426     -1.5906786      18300.908    
    335000   1.0403515      0.0023323615   0.006804912    20.705121      19.160199      1.544922      -1.4155692      18350.701    
    336000   0.95331386     0.0023323615  -0.0043067628   20.439537      19.023866      1.4156711     -1.5502353      18511.379    
    337000   0.93765833     0.0023323615  -0.00058190158  20.400114      19.007691      1.3924226     -1.6202015      18470.239    
    338000   1.0229316      0.0023323615   0.0061082067   20.59858       19.079526      1.5190535     -1.6124148      18105.203    
    339000   1.0604532      0.0023323615  -0.00019212701  20.485121      18.910348      1.574773      -1.534264       18033.493    
    340000   0.9121067      0.0023323615  -0.00023788212  20.476383      19.121904      1.3544784     -1.3701842      18039.054    
    341000   0.90971433     0.0023323615  -0.0051411914   20.785082      19.434156      1.3509258     -1.1628007      18204.607    
    342000   0.88535585     0.0023323615   4.9233512e-05  20.364141      19.049388      1.3147534     -1.5412947      18487.482    
    343000   0.88068519     0.0023323615   0.00058504289  20.693458      19.385641      1.3078175     -1.2379805      18427.219    
    344000   0.93908778     0.0023323615   0.0039517393   20.750965      19.35642       1.3945454     -1.2727644      18309.956    
    345000   1.058923       0.0023323615   0.00070451574  20.652524      19.080023      1.5725007     -1.4332225      18473.063    
    346000   1.0977163      0.0023323615  -0.0007956236   20.599085      18.968976      1.6301086     -1.5986911      18366.778    
    347000   0.92776769     0.0023323615  -0.0041275817   20.312663      18.934928      1.377735      -1.5150535      18369.151    
    348000   1.0819773      0.0023323615   0.00034298129  20.443856      18.837119      1.6067363     -1.7470165      18204.677    
    349000   1.0944991      0.0023323615   0.0042860686   20.710677      19.085345      1.6253312     -1.5105352      18304.936    
    350000   1.1375321      0.0023323615  -0.0027345749   20.689205      18.99997       1.6892351     -1.4736655      18349.581    
    351000   0.98445926     0.0023323615  -0.00010345367  20.549399      19.087477      1.461922      -1.3794603      18320.532    
    352000   1.1604765      0.0023323615   0.00078570715  21.029682      19.306375      1.7233076     -1.2836249      18782.656    
    353000   1.1215023      0.0023323615  -0.0013295348   20.458168      18.792737      1.6654309     -1.7350726      18738.108    
    354000   1.1598287      0.0023323615   0.00072036276  20.735624      19.013279      1.7223455     -1.5629984      18547.543    
    355000   0.93410041     0.0023323615  -0.0014531858   20.179237      18.792098      1.3871391     -1.6066319      18558.361    
    356000   1.2010574      0.0023323615  -0.00033353896  20.518752      18.735181      1.7835703     -1.6627309      18549.387    
    357000   1.0424828      0.0023323615   0.0005426647   20.595092      19.047005      1.5480869     -1.4742628      18649.355    
    358000   1.0721743      0.0023323615   0.00055896755  20.648342      19.056163      1.5921788     -1.4162621      18551.376    
    359000   1.0900457      0.0023323615  -0.0013314373   20.724855      19.106137      1.6187179     -1.3903674      18465.889    
    360000   0.99410847     0.0023323615  -0.0026195139   20.620607      19.144356      1.4762511     -1.3607345      18361.771    
    361000   1.0227332      0.0023323615   0.0023151937   20.653636      19.134877      1.5187588     -1.3579563      18521.939    
    362000   0.95903376     0.0023323615  -0.0020789683   20.442357      19.018192      1.4241651     -1.5516719      18534.304    
    363000   1.0485572      0.0023323615  -0.0032297994   20.616627      19.059519      1.5571075     -1.5422996      18432.474    
    364000   1.0875309      0.0023323615   0.0049739474   20.800043      19.18506       1.6149833     -1.4080594      18211.128    
    365000   0.98063526     0.0023323615  -0.00056870007  20.425405      18.969162      1.4562434     -1.5645038      18379.251    
    366000   1.087406       0.0023323615  -0.00067327445  20.362473      18.747675      1.6147979     -1.7552686      18254.291    
    367000   0.90042304     0.0023323615  -0.0015838897   20.433253      19.096125      1.3371282     -1.4120309      18238.864    
    368000   1.0026359      0.0023323615  -0.0055190545   20.40908       18.920166      1.4889143     -1.6196226      18239.991    
    369000   1.0477225      0.0023323615   0.00046273809  20.503119      18.947251      1.5558679     -1.5831105      18235.586    
    370000   1.0089236      0.0023323615  -0.00062165265  20.359086      18.860835      1.4982515     -1.6242204      18311.598    
    371000   0.97158966     0.0023323615  -0.0073831025   20.606254      19.163443      1.4428107     -1.4224276      18245.192    
    372000   0.99826928     0.0023323615  -0.002974073    20.683098      19.200668      1.4824299     -1.3235516      18265.235    
    373000   0.84378363     0.0023323615   0.00038174596  20.242953      18.989934      1.2530187     -1.3836656      18407.458    
    374000   1.1806482      0.0023323615   0.0003655924   20.942998      19.189735      1.7532626     -1.2665014      18287.884    
    375000   1.1065336      0.0023323615  -0.0037568023   20.592331      18.949128      1.6432024     -1.5392273      18362.696    
    376000   0.86701384     0.0023323615  -0.0018865216   20.059472      18.771957      1.2875155     -1.6061524      18116.8      
    377000   0.84982296     0.0023323615  -0.0013757351   20.293835      19.031848      1.2619871     -1.4119838      18012.678    
    378000   0.87046414     0.0023323615  -0.00056274398  20.690434      19.397795      1.2926393     -1.1379223      18597.337    
    379000   0.96318232     0.0023323615  -0.0038229246   20.552261      19.121935      1.4303257     -1.3270031      18695.762    
    380000   0.85925718     0.0023323615  -0.0021557942   20.383443      19.107446      1.2759969     -1.4121292      18414.828    
    381000   1.0017364      0.0023323615   0.0049736105   20.875402      19.387824      1.4875786     -1.2718868      18330.952    
    382000   0.99881952     0.0023323615  -0.00062958911  20.569135      19.085888      1.483247      -1.5785851      18320.949    
    383000   0.9815197      0.0023323615   0.0015577583   20.367759      18.910202      1.4575568     -1.6448028      18087.486    
    384000   0.94249638     0.0023323615  -0.0030752575   20.54204       19.142433      1.3996071     -1.3723322      18133.767    
    385000   1.1318141      0.0023323615   0.0026502608   20.580072      18.899328      1.680744      -1.7036864      18044.02     
    386000   0.88568815     0.0023323615  -0.00084660579  20.255038      18.939791      1.3152469     -1.5595523      18153.074    
    387000   0.97961708     0.0023323615   0.0034724413   20.396046      18.941314      1.4547314     -1.6246079      18019.419    
    388000   1.033264       0.0023323615  -0.0042949837   20.527129      18.992732      1.5343971     -1.6437548      18106.306    
    389000   1.0828987      0.0023323615   0.0024741871   20.591445      18.98334       1.6081046     -1.5451059      18216.013    
    390000   0.91837726     0.0023323615  -0.00068148269  20.488718      19.124928      1.3637902     -1.3379659      18320.34     
    391000   0.94611924     0.0023323615   0.00079442384  20.246049      18.841062      1.4049871     -1.6223936      18311.689    
    392000   1.0493521      0.0023323615   0.0015051359   20.641398      19.08311       1.5582878     -1.5221026      18344.779    
    393000   1.0923523      0.0023323615   0.0017016571   20.498713      18.87657       1.6221432     -1.5306139      18397.989    
    394000   1.0043525      0.0023323615  -0.0035626407   20.566489      19.075025      1.4914634     -1.4723858      18286.548    
    395000   1.131498       0.0023323615   0.0033173812   20.823123      19.142848      1.6802745     -1.3089671      18235.006    
    396000   1.0528001      0.0023323615  -0.00061946629  20.356743      18.793335      1.5634081     -1.6893687      18140.754    
    397000   1.2062443      0.0023323615   0.0043789143   20.619528      18.828255      1.7912727     -1.6770983      18117.856    
    398000   1.1315708      0.0023323615   0.0016754154   20.474858      18.794475      1.6803827     -1.6881401      18188.299    
    399000   0.9240135      0.0023323615   0.0013102422   20.754103      19.381943      1.3721601     -1.2524519      18251.238    
    400000   1.0681561      0.0023323615  -0.0039625173   20.620333      19.034121      1.5862118     -1.5349045      18140.672    
    401000   0.96648607     0.0023323615   0.0012347003   20.630123      19.194891      1.4352318     -1.3418739      9111.3815    
    402000   0.89853981     0.0023323615  -0.0031090639   20.494901      19.16057       1.3343316     -1.2361502      18132.667    
    403000   1.1200242      0.0023323615   0.0024522441   20.371174      18.707938      1.663236      -1.8109781      18263.039    
    404000   1.0405596      0.0023323615  -0.0038031864   20.621626      19.076395      1.545231      -1.5250385      18114.807    
    405000   1.029555       0.0023323615   0.0020236801   20.483622      18.954733      1.5288892     -1.4686594      18232.961    
    406000   1.0469062      0.0023323615   0.0012845132   20.553281      18.998625      1.5546557     -1.3990199      18415.915    
    407000   0.87800652     0.0023323615  -0.0020768893   20.242094      18.938254      1.3038397     -1.5209597      18327.983    
    408000   0.97270795     0.0023323615   0.0012759565   20.450697      19.006226      1.4444713     -1.4938825      18288.16     
    409000   1.0744357      0.0023323615  -1.4287307e-05  20.701554      19.106017      1.595537      -1.4404367      18248.485    
    410000   1.0532692      0.0023323615  -0.0026056011   20.700511      19.136407      1.5641047     -1.4323283      18358.778    
[...]
    861000   0.84934767     0.0023323615  -0.0039428844   20.284222      19.022941      1.2612813     -1.5156827      18667.202    
    862000   0.97975337     0.0023323615  -0.0033190132   20.326952      18.872018      1.4549337     -1.7221917      18576.435    
    863000   0.94246283     0.0023323615  -0.0017302951   20.370349      18.970791      1.3995573     -1.5204139      18556.222    
    864000   0.98410198     0.0023323615   0.00040051325  20.534702      19.07331       1.4613914     -1.5626143      18583.975    
    865000   1.2013947      0.0023323615  -0.0025342886   21.027069      19.242998      1.7840711     -1.3524841      18595.203    
    866000   1.0527333      0.0023323615   0.0025230673   20.424873      18.861564      1.5633089     -1.6145863      18484.315    
    867000   1.0032279      0.0023323615  -0.0040627691   20.432382      18.942588      1.4897934     -1.6352758      18460.172    
    868000   1.0823579      0.0023323615  -0.00077542084  20.487615      18.880313      1.6073015     -1.6010266      18139.353    
    869000   0.89155251     0.0023323615  -0.0044932885   20.384976      19.06102       1.3239555     -1.6457537      18167.109    
    870000   1.0007641      0.0023323615  -0.0018749425   20.528222      19.042087      1.4861347     -1.4654663      18304.419    
    871000   0.8680914      0.0023323615   0.00095508232  20.205591      18.916475      1.2891157     -1.7258961      18243.705    
    872000   0.98460051     0.0023323615   0.00027834663  20.613463      19.151331      1.4621318     -1.4178756      18328.468    
    873000   0.89052363     0.0023323615  -0.0007693838   20.475777      19.153349      1.3224276     -1.4195085      18223.856    
    874000   1.0439048      0.0023323615   0.0011962301   20.548483      18.998285      1.5501986     -1.5556004      18284.3      
    875000   0.93618096     0.0023323615  -0.0025105898   20.335115      18.944887      1.3902287     -1.5612808      18316.807    
    876000   1.0828671      0.0023323615  -0.0015000299   20.515953      18.907896      1.6080576     -1.6615421      18217.353    
    877000   0.85178786     0.0023323615  -0.0022509338   20.412229      19.147324      1.264905      -1.4046285      18328.862    
    878000   0.93619989     0.0023323615  -0.00023233311  20.285579      18.895322      1.3902568     -1.6757408      18414.546    
    879000   0.89292238     0.0023323615  -0.0033666528   20.387904      19.061914      1.3259897     -1.420859       18254.275    
    880000   0.98059165     0.0023323615  -0.00022404578  20.531229      19.07505       1.4561786     -1.3425104      18367.934    
    881000   0.94307794     0.0023323615   0.0021759966   20.391466      18.990996      1.4004707     -1.4823489      18319.567    
    882000   1.113635       0.0023323615   0.0034968111   20.69406       19.040312      1.6537479     -1.4911451      18533.402    
    883000   1.1157059      0.0023323615   0.00083896199  20.702654      19.045831      1.6568232     -1.3827964      18296.721    
    884000   1.0750554      0.0023323615  -0.00016861694  20.783731      19.187273      1.5964572     -1.2829127      18373.841    
    885000   1.0539708      0.0023323615   0.0011642492   20.530245      18.965099      1.5651467     -1.4431483      18246.283    
    886000   0.97673516     0.0023323615  -0.0014054101   20.468712      19.01826       1.4504517     -1.5188462      18218.145    
    887000   1.0424848      0.0023323615   0.0012357126   20.848168      19.300078      1.5480899     -1.3547467      18246.443    
    888000   1.1083794      0.0023323615  -0.0024776624   20.700316      19.054372      1.6459435     -1.4029236      18415.83     
    889000   1.202695       0.0023323615   0.0021927767   20.631475      18.845473      1.786002      -1.6948813      18419.504    
    890000   1.1846286      0.0023323615   0.0019736223   20.823869      19.064696      1.7591735     -1.4871452      18305.607    
    891000   1.0920024      0.0023323615   0.0036928908   20.628542      19.006919      1.6216235     -1.5539965      18246.887    
    892000   0.976306       0.0023323615   0.0019810772   19.882916      18.433102      1.4498144     -1.9861547      18351.572    
    893000   1.0195816      0.0023323615  -1.526171e-05   20.439448      18.925369      1.5140786     -1.4713847      18234.706    
    894000   1.0806228      0.0023323615  -0.00014587013  20.472429      18.867704      1.6047249     -1.6637456      18284.866    
    895000   0.98159899     0.0023323615   0.00033367993  20.411227      18.953552      1.4576745     -1.5664656      18286.507    
    896000   0.99918028     0.0023323615   0.005712831    20.599239      19.115456      1.4837827     -1.4035784      18220.842    
    897000   0.96721525     0.0023323615   0.0036519906   20.394388      18.958073      1.4363146     -1.4672225      18207.696    
    898000   1.1083392      0.0023323615  -0.0031493339   20.941493      19.295609      1.6458837     -1.3212811      18316.289    
    899000   0.90258012     0.0023323615   0.00067232834  20.427869      19.087537      1.3403315     -1.485499       18313.308    
    900000   1.1247846      0.0023323615  -0.0027005517   20.477827      18.807522      1.6703052     -1.5761294      18316.864    
    901000   1.011178       0.0023323615  -0.0041037304   20.887608      19.386009      1.5015994     -1.0677192      18419.939    
    902000   0.99289601     0.0023323615  -0.00031128675  20.315673      18.841222      1.4744506     -1.5073733      18411.597    
    903000   0.93353657     0.0023323615   0.00090791068  20.171782      18.78548       1.3863018     -1.6374683      18242.424    
    904000   1.0728158      0.0023323615   0.000858466    20.646402      19.05327       1.5931315     -1.5204441      18390.331    
    905000   0.96851064     0.0023323615  -0.0022186014   20.343557      18.905319      1.4382383     -1.5803315      18279.431    
    906000   1.163034       0.0023323615   0.00059423274  20.808229      19.081124      1.7271055     -1.4363375      18313.154    
    907000   1.1418945      0.0023323615   0.00024663546  20.783859      19.088146      1.6957133     -1.3723692      18302.203    
    908000   0.98855138     0.0023323615  -0.0024865769   20.472569      19.00457       1.4679988     -1.6203029      18260.403    
    909000   1.0710726      0.0023323615  -0.0021314983   20.406305      18.815763      1.5905429     -1.696387       18297.654    
    910000   0.89807688     0.0023323615  -0.0016084933   20.680265      19.346621      1.3336442     -1.2126697      18288.18     
    911000   1.0198514      0.0023323615  -0.00056479017  20.41919       18.904711      1.5144794     -1.6134252      18361.777    
    912000   0.92777445     0.0023323615   0.0019847879   20.571102      19.193357      1.3777451     -1.2930039      18310.664    
    913000   1.037996       0.0023323615   0.0029200293   20.588109      19.046685      1.5414241     -1.4518279      18381.972    
    914000   0.98924291     0.0023323615  -0.00046288376  20.467579      18.998553      1.4690257     -1.4928406      18265.679    
    915000   1.0501076      0.0023323615  -0.00026000439  20.648184      19.088774      1.5594098     -1.4603         18333.013    
    916000   0.95416631     0.0023323615  -0.0034234958   20.551156      19.134219      1.416937      -1.4070016      18354.396    
    917000   0.86982777     0.0023323615  -0.0019862338   20.160309      18.868614      1.2916942     -1.5541456      18237.025    
    918000   1.0230117      0.0023323615  -0.0039341154   20.490835      18.971662      1.5191724     -1.5480817      18268.217    
    919000   0.91370577     0.0023323615   0.0037279468   20.451018      19.094165      1.3568531     -1.4045118      18295.179    
    920000   0.95428171     0.0023323615   0.0035748878   20.306102      18.888993      1.4171083     -1.5725852      18306.151    
    921000   0.94215058     0.0023323615  -0.00072637341  20.350751      18.951657      1.3990936     -1.6241218      18290.703    
    922000   0.86816415     0.0023323615   0.0016000331   20.31308       19.023857      1.2892238     -1.4903089      18216.864    
    923000   0.97467909     0.0023323615  -0.00044181653  20.458126      19.010727      1.4473984     -1.566181       18121.336    
    924000   0.99666128     0.0023323615  -0.0008919914   20.435078      18.955036      1.480042      -1.4921519      18224.212    
    925000   1.0331116      0.0023323615  -0.0030266358   20.299359      18.765188      1.5341707     -1.699699       18589.039    
    926000   1.0391107      0.0023323615   0.00088033099  20.50418       18.9611        1.5430795     -1.5522076      18575.091    
    927000   1.1191378      0.0023323615  -0.0023876163   20.374614      18.712694      1.6619196     -1.7148717      18715.435    
    928000   0.9778309      0.0023323615  -0.0016774913   20.551317      19.099238      1.4520789     -1.3983721      18512.307    
    929000   0.93990639     0.0023323615   0.00077112134  20.586919      19.191158      1.395761      -1.3109769      18337.816    
    930000   1.0610756      0.0023323615  -0.0036935196   20.82857       19.252872      1.5756972     -1.3113315      18224.871    
    931000   0.87552412     0.0023323615   0.00061969685  20.567748      19.267594      1.3001533     -1.2287099      18701.472    
    932000   1.0052473      0.0023323615   0.00014933755  20.528266      19.035474      1.4927922     -1.4162428      18561.505    
    933000   1.0911592      0.0023323615  -0.0019181765   20.797903      19.177532      1.6203714     -1.4933983      18384.576    
    934000   1.0750231      0.0023323615  -0.00016264795  20.665005      19.068596      1.5964093     -1.4936419      18568.501    
    935000   0.96653348     0.0023323615  -0.0024604399   20.465453      19.03015       1.4353022     -1.5017645      18542.433    
    936000   1.015727       0.0023323615   0.0021451705   20.473229      18.964874      1.5083546     -1.520143       18502.945    
    937000   0.86453732     0.0023323615   0.0021249699   20.22608       18.942242      1.2838379     -1.5365489      18275.419    
    938000   1.013715       0.0023323615  -0.0015218557   20.758487      19.25312       1.5053668     -1.4101352      18284.986    
    939000   1.2028537      0.0023323615  -0.0014796833   21.217406      19.431168      1.7862378     -1.065721       18264.376    
    940000   0.86116236     0.0023323615  -0.00092805732  20.30627       19.027443      1.2788261     -1.441727       18499.138    
    941000   0.9073726      0.0023323615  -0.00084059527  20.438974      19.091526      1.3474483     -1.3844892      18639.572    
    942000   0.97401        0.0023323615  -0.00034452028  20.605433      19.159028      1.4464049     -1.4337764      18634.683    
    943000   1.0351163      0.0023323615  -0.0019086057   20.827323      19.290176      1.5371476     -1.2993929      18566.449    
    944000   1.0984462      0.0023323615   0.0012290753   20.846276      19.215083      1.6311926     -1.3384922      18621.826    
    945000   0.99797419     0.0023323615   0.0052472448   20.852059      19.370067      1.4819917     -1.3387601      18553.273    
    946000   1.0105874      0.0023323615  -0.0010420434   20.908379      19.407657      1.5007223     -1.2625194      18703.003    
    947000   1.1061664      0.0023323615   0.0015977326   20.857925      19.215268      1.6426571     -1.3855286      18609.321    
    948000   0.85917515     0.0023323615  -0.0024928643   20.542512      19.266637      1.2758751     -1.2391706      18416.448    
    949000   1.0550926      0.0023323615  -0.0022550592   20.609496      19.042684      1.5668125     -1.4730123      18613.946    
    950000   0.99837355     0.0023323615   0.0013216872   20.466242      18.983658      1.4825847     -1.5209651      18519.341    
    951000   1.0183914      0.0023323615   0.0029100718   20.477814      18.965503      1.5123112     -1.5213884      18447.787    
    952000   1.0348985      0.0023323615   0.00025696425  20.672168      19.135344      1.5368243     -1.3325857      18449.154    
    953000   1.0163863      0.0023323615   0.0010000453   20.441961      18.932627      1.5093337     -1.6041561      18453.531    
    954000   0.99883551     0.0023323615  -0.00085140715  20.284556      18.801285      1.4832707     -1.7183139      18284.729    
    955000   1.0517532      0.0023323615   0.0019322026   20.44759       18.885737      1.5618535     -1.6700102      18275.525    
    956000   1.0691536      0.0023323615  -0.00072631835  19.967952      18.380259      1.5876931     -1.985873       18281.309    
    957000   1.0221287      0.0023323615   0.0044651449   20.419265      18.901404      1.517861      -1.6782605      18241.931    
    958000   0.96903702     0.0023323615   0.00017944626  20.349177      18.910157      1.43902       -1.6429033      18121.092    
    959000   0.99664858     0.0023323615   0.0030143925   20.471282      18.991259      1.4800231     -1.6245576      18342.84     
    960000   0.93112457     0.0023323615   0.0011884204   20.159832      18.777112      1.38272       -1.6912366      18348.893    
    961000   1.0081052      0.0023323615  -0.0031173296   20.546738      19.049701      1.4970362     -1.5688018      18255.36     
    962000   1.1384687      0.0023323615   0.0023163702   20.502486      18.81186       1.690626      -1.6736121      18259.491    
    963000   1.0743275      0.0023323615  -0.0011507672   20.500387      18.905011      1.5953764     -1.6645246      18246.103    
    964000   1.1117072      0.0023323615  -0.0020410492   20.792134      19.141249      1.6508852     -1.4473063      18222.931    
    965000   0.81847284     0.0023323615  -0.0025145497   20.058806      18.843374      1.2154322     -1.5657948      18481.542    
    966000   1.0868741      0.0023323615  -0.0023995664   20.498559      18.884551      1.6140081     -1.5067823      18538.786    
    967000   0.96117519     0.0023323615  -0.0018422809   20.32786       18.900515      1.4273452     -1.5513266      18500.894    
    968000   1.0645345      0.0023323615  -0.0015634798   20.694867      19.114033      1.5808337     -1.3600091      18507.518    
    969000   0.97408337     0.0023323615   0.0014955843   20.485026      19.038512      1.4465138     -1.4746312      18281.54     
    970000   0.961778       0.0023323615  -7.0707426e-05  20.55855       19.13031       1.4282403     -1.4013813      18307.618    
    971000   0.94260787     0.0023323615  -0.0023425128   20.243475      18.843703      1.3997727     -1.6642517      18227.503    
    972000   0.97660261     0.0023323615   0.00074183407  20.147769      18.697514      1.4502549     -1.7401957      17985.625    
    973000   1.0570299      0.0023323615   0.00097356279  20.341655      18.771966      1.5696894     -1.7503213      18017.894    
    974000   0.99996781     0.0023323615   0.0029241137   20.321794      18.836842      1.4849522     -1.6861142      18239.971    
    975000   1.0849972      0.0023323615   0.00060587565  20.459057      18.847836      1.6112209     -1.6300056      18238.054    
    976000   0.95326547     0.0023323615   0.0037479888   20.428399      19.0128        1.4155992     -1.4804849      18246.139    
    977000   1.015725       0.0023323615   0.0016166804   20.769369      19.261017      1.5083516     -1.3488275      18274.157    
    978000   1.063661       0.0023323615  -0.0025768509   20.796666      19.21713       1.5795365     -1.3328814      18432.841    
    979000   0.8612899      0.0023323615   0.0035288166   20.461349      19.182333      1.2790155     -1.4259484      18279.227    
    980000   0.90041271     0.0023323615  -0.00092775643  20.344425      19.007312      1.3371129     -1.4683079      18257.23     
    981000   1.0027283      0.0023323615   9.351296e-05   20.674819      19.185767      1.4890515     -1.5152035      18522.974    
    982000   1.1850712      0.0023323615  -0.00037262273  21.042924      19.283093      1.7598307     -1.2921409      18642.465    
    983000   1.0139935      0.0023323615   0.0002500296   20.948019      19.442239      1.5057804     -1.1821904      18560.186    
    984000   1.0662279      0.0023323615   0.00034204749  20.741748      19.1584        1.5833484     -1.2464705      18390.541    
    985000   0.83361084     0.0023323615  -0.0034257508   20.131418      18.893505      1.2379121     -1.4757009      18345.224    
    986000   1.0842617      0.0023323615  -0.003179993    20.718522      19.108393      1.6101286     -1.4955677      18298.996    
    987000   1.0079029      0.0023323615   0.0038006308   20.618334      19.121598      1.4967358     -1.3083299      18180.074    
    988000   0.94333188     0.0023323615   0.0027118806   20.469242      19.068394      1.4008478     -1.4511251      18306.554    
    989000   1.0359148      0.0023323615  -0.0010845083   20.636609      19.098275      1.5383335     -1.401252       18146.189    
    990000   1.0841892      0.0023323615   0.0026050916   20.661786      19.051766      1.6100209     -1.5339822      18330.333    
    991000   0.90022283     0.0023323615   0.0014030735   20.28841       18.951579      1.3368309     -1.5253175      18239.701    
    992000   0.96917203     0.0023323615   0.0045338485   20.535304      19.096084      1.4392205     -1.4744544      18288.28     
    993000   1.0254435      0.0023323615  -0.0046189831   20.422799      18.900016      1.5227836     -1.5563762      18271.126    
    994000   1.0799854      0.0023323615  -0.0029212164   20.734744      19.130965      1.6037783     -1.4964715      18292.808    
    995000   1.1266759      0.0023323615  -0.0012914039   20.638646      18.965532      1.6731137     -1.5615432      18506.801    
    996000   1.0124763      0.0023323615   6.7763238e-05  20.43708       18.933553      1.5035272     -1.5045948      18397.602    
    997000   1.0273179      0.0023323615   0.0027486983   20.371765      18.846197      1.5255671     -1.6620796      18403.772    
    998000   0.8740723      0.0023323615  -0.00024945393  20.296164      18.998166      1.2979974     -1.4612883      18451.955    
    999000   1.1308737      0.0023323615  -0.00049614785  20.579775      18.900428      1.6793475     -1.5835388      18164.517    
   1000000   0.97408152     0.0023323615  -0.00030242697  20.392652      18.946141      1.4465111     -1.6863489      18160.217    
Loop time of 54.6078 on 1 procs for 1000000 steps with 100 atoms

Performance: 7910950.899 tau/day, 18312.386 timesteps/s
99.1% CPU use with 1 MPI tasks x 1 OpenMP threads

MPI task timing breakdown:
Section |  min time  |  avg time  |  max time  |%varavg| %total
---------------------------------------------------------------
Pair    | 45.487     | 45.487     | 45.487     |   0.0 | 83.30
Bond    | 1.2572     | 1.2572     | 1.2572     |   0.0 |  2.30
Neigh   | 3.7915     | 3.7915     | 3.7915     |   0.0 |  6.94
Comm    | 1.369      | 1.369      | 1.369      |   0.0 |  2.51
Output  | 0.40083    | 0.40083    | 0.40083    |   0.0 |  0.73
Modify  | 1.9447     | 1.9447     | 1.9447     |   0.0 |  3.56
Other   |            | 0.3577     |            |       |  0.66

Nlocal:            100 ave         100 max         100 min
Histogram: 1 0 0 0 0 0 0 0 0 0
Nghost:            290 ave         290 max         290 min
Histogram: 1 0 0 0 0 0 0 0 0 0
Neighs:           4851 ave        4851 max        4851 min
Histogram: 1 0 0 0 0 0 0 0 0 0

Total # of neighbors = 4851
Ave neighs/atom = 48.51
Ave special neighs/atom = 1.98
Neighbor list builds = 97852
Dangerous builds = 79736

write_data      ${outputfile_assembled} nofix nocoeff
write_data      7_assembled.data nofix nocoeff
System init for write_data ...
Generated 0 of 6 mixed pair_coeff terms from geometric mixing rule

Total wall time: 0:00:55
