ITEM: TIMESTEP
0
ITEM: NUMBER OF ATOMS
100
ITEM: BOX BOUNDS pp pp pp
-4.9281385000000000e+01 5.0718615000000000e+01
-5.1424891000000002e+01 4.8575108999999998e+01
-4.8996873000000001e+01 5.1003126999999999e+01
ITEM: ATOMS id type xu yu zu vx vy vz
1 1 -4.91682 -3.78386 4.8099 0.0438884 0.565009 1.27957
2 1 -4.70003 -3.18228 5.50017 1.22388 0.201632 -0.903824
3 1 -3.96561 -3.4687 6.04127 0.638289 -0.419528 -0.0850247
4 1 -3.24481 -3.55234 5.42895 -1.0548 -1.25782 -0.110991
5 1 -3.51787 -4.24782 4.87221 -0.312137 1.51253 -0.258868
6 1 -3.36169 -4.72162 5.76098 0.600551 -1.22131 2.13467
7 1 -2.44215 -4.95953 5.4562 -1.81222 -0.182757 -1.72076
8 1 -1.60948 -5.09261 5.89635 0.652386 0.714756 -0.976069
9 1 -1.11864 -4.49308 6.48329 -0.267135 0.115689 1.34367
10 1 -0.339708 -3.86455 6.28263 0.124779 -0.777718 1.07214
11 1 0.229613 -3.67394 5.54923 0.482778 1.26627 -1.29083
12 1 0.730384 -3.04997 6.03731 -1.34522 -0.821433 0.0795449
13 1 1.26231 -2.32512 5.44156 -0.0947045 -1.02517 1.09013
14 1 1.38532 -2.33424 4.50564 -0.959495 0.689638 -0.898207
15 1 1.83566 -3.06268 4.1824 2.12916 -1.04892 -1.46044
16 1 1.92699 -4.04647 4.1982 0.0932358 0.019307 2.56972
17 1 2.81589 -4.24995 3.91709 2.51739 0.415401 0.53025
18 1 2.70589 -4.78453 4.70518 0.806031 -0.341765 -0.982429
19 1 3.70703 -4.55616 4.43047 -1.45539 -0.844744 2.22077
20 1 4.10572 -5.03227 3.70144 0.546375 0.740969 -1.15092
21 1 4.943 -4.88577 3.22574 0.29589 0.532601 -0.529537
22 1 5.28719 -4.57418 2.394 1.73791 -0.220727 -0.619198
23 1 6.19537 -4.55684 2.81336 -1.46158 0.344106 0.548667
24 1 6.74721 -4.77806 3.55485 -0.401885 0.376363 -1.14325
25 1 7.30166 -4.4795 2.79511 -0.880448 -1.44721 -0.35126
26 1 7.89506 -3.88546 2.35427 0.766335 0.867017 -0.511213
27 1 8.52399 -4.04154 1.67927 0.0765949 -0.939543 -0.651462
28 1 9.19761 -3.54325 1.10648 -0.553575 -0.800857 0.291925
29 1 9.32447 -4.3794 0.605235 -1.02855 -0.192 -0.120973
30 1 8.45979 -4.63693 0.84403 -1.03913 -0.219353 1.3326
31 1 8.28373 -5.15601 1.62529 -0.0442682 1.00419 1.94328
32 1 7.51261 -4.89647 1.11403 0.167684 1.24388 -0.7386
33 1 7.33024 -5.80764 1.17779 -0.718407 0.439883 -0.128988
34 1 7.56953 -6.64064 0.827666 0.169601 0.909771 -0.815106
35 1 7.17785 -6.1582 0.0429553 0.469967 -0.326835 0.726743
36 1 7.29 -5.66873 -0.792364 -0.830743 0.458871 0.152796
37 1 6.45843 -5.69771 -1.38328 -0.693058 -0.217299 0.742537
38 1 5.67334 -5.76233 -1.88508 -0.0299629 0.185099 -0.748571
39 1 5.38235 -5.52801 -1.01978 1.05149 1.88626 0.317457
40 1 6.0855 -4.88983 -0.919617 0.202938 -0.0513224 -0.762442
41 1 5.97523 -4.56781 -1.84308 1.30919 -0.227725 -0.709056
42 1 5.53309 -4.58509 -2.70592 0.571753 0.827018 -1.15081
43 1 6.07154 -3.74549 -2.67831 2.11358 -1.05827 0.888128
44 1 6.26359 -2.98922 -2.07925 2.03843 -0.935618 0.0466804
45 1 5.62718 -2.87323 -1.42946 0.117522 0.463963 -2.11958
46 1 5.05298 -3.5982 -1.17521 -0.683433 1.62749 -0.430139
47 1 4.92646 -4.23874 -0.416536 0.747388 -1.21857 -0.429204
48 1 5.12444 -4.87499 0.312299 -2.32137 2.91081 -0.924528
49 1 5.55828 -4.19992 0.8925 -0.712652 1.49852 0.916121
50 1 5.57364 -3.32311 1.23613 -0.168367 -0.798766 0.666432
51 1 -5.62398 -4.40246 4.52702 -0.899076 1.17106 -1.0527
52 1 -5.41478 -3.59834 3.96081 -0.0769612 -0.74803 -1.36112
53 1 -4.87596 -3.69293 3.11554 0.0766654 0.855881 0.160019
54 1 -5.21696 -2.86148 2.70033 -1.3341 -0.795599 -0.0346608
55 1 -4.48613 -2.86064 2.05483 -0.909708 -0.124248 -0.947795
56 1 -5.27672 -3.09547 1.59178 -0.503222 0.504525 -0.645177
57 1 -5.82987 -2.27696 1.68572 -1.1364 0.26527 -0.74662
58 1 -5.43634 -1.47304 1.58145 -2.24189 1.99667 -0.886792
59 1 -5.83932 -0.976521 2.3102 -1.139 -1.37353 0.844509
60 1 -5.51126 -0.0795687 2.53496 2.22874 0.597522 -0.528907
61 1 -5.3234 0.713146 2.99798 -1.3505 0.420975 -0.264305
62 1 -4.55428 0.400448 2.40984 -1.02632 -0.23052 0.0142222
63 1 -4.05931 -0.434834 2.10794 -0.01009 0.413921 1.19678
64 1 -4.66866 -0.571927 2.7746 0.727697 -2.91856 0.592734
65 1 -4.09573 -1.06951 3.31484 -1.52166 -1.12329 1.20587
66 1 -3.38948 -0.994242 2.61474 -0.362687 0.616534 -1.58926
67 1 -2.67103 -0.920483 1.91166 0.283665 -0.00114747 0.179338
68 1 -2.1894 -0.0668915 1.73992 -0.672234 -0.555055 -0.975553
69 1 -2.26042 -0.0375943 2.69644 -1.07935 0.0715834 0.153747
70 1 -2.36157 -0.0980838 3.72395 0.634207 0.816013 1.05197
71 1 -2.41473 0.814363 4.00212 0.0227417 -0.348174 -0.468635
72 1 -2.9245 1.5742 4.38715 -2.17248 -1.50852 -0.329848
73 1 -3.04873 2.29521 5.04927 1.40847 -1.82963 0.797494
74 1 -3.75133 2.21686 5.66627 0.377005 -0.53789 -0.442783
75 1 -4.35742 2.85117 6.10934 -0.532196 -1.09384 -0.412848
76 1 -4.46235 3.58617 6.73793 0.011845 -0.0854167 -0.479865
77 1 -4.4139 3.48628 7.69387 0.255827 0.0882767 -0.179077
78 1 -5.3333 3.31202 7.47519 0.762543 0.0403872 0.638606
79 1 -5.60336 2.63828 6.81872 -0.41989 0.6489 -0.150251
80 1 -6.3885 2.43239 7.23375 -0.0563939 0.898997 -0.660554
81 1 -6.9034 2.26869 6.43675 0.157506 0.453967 1.0331
82 1 -6.30964 2.96698 6.18374 -2.47669 -0.713795 0.161256
83 1 -5.57692 3.14713 5.58982 -0.623171 1.15396 0.791702
84 1 -5.33926 3.61292 4.84876 0.327913 0.783535 2.47014
85 1 -4.76057 3.41969 4.05893 -0.116204 0.859853 -0.802983
86 1 -5.58327 3.2833 3.58908 0.792843 1.49106 0.192637
87 1 -4.86002 3.70899 3.11835 1.07665 0.379201 0.676755
88 1 -5.53238 3.71976 2.46156 -0.280712 0.870298 -0.218953
89 1 -5.81178 4.03607 1.5719 0.915691 -0.997626 -0.0588828
90 1 -5.08016 4.65815 1.52175 1.65342 -1.22624 1.216
91 1 -4.63539 4.47035 0.672408 1.68572 -0.830765 -1.25488
92 1 -3.76874 4.27413 0.260618 0.930664 -1.00686 0.667394
93 1 -4.50517 4.03144 -0.343309 -1.11813 1.20131 0.483797
94 1 -4.30145 4.65654 -1.02976 1.80822 -1.78305 1.79979
95 1 -4.24282 4.32221 -1.96269 1.20096 -0.643029 0.825751
96 1 -4.32576 3.44038 -2.52745 0.142899 -1.66875 -0.712226
97 1 -4.52532 3.39501 -1.58712 -1.40718 0.646068 1.4172
98 1 -4.97169 2.63882 -1.95903 -0.0306478 -2.17511 0.672787
99 1 -5.08892 2.22815 -1.10544 -0.402071 1.05484 2.07819
100 1 -4.44921 2.83304 -0.724322 1.2654 0.653269 -1.12227
ITEM: TIMESTEP
1
ITEM: NUMBER OF ATOMS
100
ITEM: BOX BOUNDS pp pp pp
-4.9281385000000000e+01 5.0718615000000000e+01
-5.1424891000000002e+01 4.8575108999999998e+01
-4.8996873000000001e+01 5.1003126999999999e+01
ITEM: ATOMS id type xu yu zu vx vy vz
1 1 -4.91665 -3.78141 4.81627 0.00612224 0.396889 1.242
2 1 -4.69388 -3.18109 5.49582 1.24588 0.291259 -0.819574
3 1 -3.96248 -3.47083 6.04095 0.598595 -0.430436 -0.0322599
4 1 -3.24986 -3.55835 5.42856 -0.93807 -1.11616 -0.0271612
5 1 -3.51949 -4.24081 4.87111 -0.346771 1.25035 -0.189987
6 1 -3.35844 -4.72753 5.7711 0.685956 -1.13071 1.89967
7 1 -2.45166 -4.96032 5.44764 -1.95567 -0.140842 -1.68994
8 1 -1.60604 -5.08897 5.8916 0.696345 0.749064 -0.932849
9 1 -1.11965 -4.49227 6.48983 -0.140981 0.20575 1.26679
10 1 -0.339567 -3.86878 6.28822 -0.0454527 -0.904929 1.13741
11 1 0.231952 -3.6678 5.54246 0.418185 1.16634 -1.40515
12 1 0.724216 -3.05332 6.03745 -1.10865 -0.506812 -0.00697809
13 1 1.26142 -2.33079 5.44767 -0.258976 -1.24038 1.32371
14 1 1.38017 -2.33017 4.5012 -1.07197 0.879526 -0.875308
15 1 1.84672 -3.06884 4.17483 2.25961 -1.34402 -1.53984
16 1 1.92737 -4.04609 4.21108 0.0918239 0.1139 2.57245
17 1 2.82851 -4.24786 3.91966 2.49932 0.435127 0.501101
18 1 2.71059 -4.78608 4.70009 1.05771 -0.286964 -1.04156
19 1 3.6991 -4.56054 4.44181 -1.68604 -0.919005 2.28945
20 1 4.10858 -5.02855 3.69558 0.579711 0.760034 -1.16354
21 1 4.94433 -4.88315 3.22325 0.245907 0.515409 -0.472127
22 1 5.29627 -4.57524 2.39096 1.87201 -0.203807 -0.600921
23 1 6.18761 -4.5551 2.81584 -1.62933 0.354645 0.444307
24 1 6.74543 -4.77613 3.54903 -0.313682 0.389995 -1.16744
25 1 7.29702 -4.48693 2.79362 -0.946147 -1.49676 -0.2714
26 1 7.89875 -3.88098 2.35189 0.689028 0.903671 -0.427853
27 1 8.52495 -4.04599 1.67559 0.298909 -0.840611 -0.806784
28 1 9.19454 -3.54771 1.10809 -0.671606 -0.977389 0.348976
29 1 9.31966 -4.38005 0.604668 -0.903285 -0.0719134 -0.106139
30 1 8.45442 -4.63813 0.850545 -1.09412 -0.257503 1.25967
31 1 8.28347 -5.15102 1.63507 -0.0743148 0.992085 1.96306
32 1 7.51336 -4.88985 1.11037 0.130769 1.37592 -0.712028
33 1 7.32648 -5.80551 1.17731 -0.779486 0.426497 -0.0667703
34 1 7.57033 -6.63624 0.823146 0.155974 0.84404 -0.98005
35 1 7.18037 -6.15993 0.0467795 0.531156 -0.350031 0.78366
36 1 7.28539 -5.66651 -0.791762 -1.0102 0.42215 0.0973747
37 1 6.45581 -5.69896 -1.37919 -0.367295 -0.284813 0.887075
38 1 5.67295 -5.76143 -1.88926 -0.125583 0.177923 -0.904416
39 1 5.38749 -5.51853 -1.01796 0.988795 1.8821 0.389559
40 1 6.08642 -4.88973 -0.923523 0.185585 0.110867 -0.793055
41 1 5.98174 -4.56906 -1.84647 1.29195 -0.271082 -0.65542
42 1 5.5362 -4.58067 -2.71155 0.670015 0.938036 -1.09448
43 1 6.08195 -3.75091 -2.6737 2.05387 -1.10772 0.951132
44 1 6.27425 -2.99419 -2.0797 2.22221 -1.05096 -0.213365
45 1 5.62726 -2.87081 -1.43953 -0.0821562 0.50207 -1.91804
46 1 5.04952 -3.59034 -1.17708 -0.698643 1.50812 -0.309443
47 1 4.93033 -4.24479 -0.418773 0.795749 -1.1685 -0.499088
48 1 5.11292 -4.86006 0.307626 -2.27628 3.04214 -0.914873
49 1 5.55458 -4.19289 0.896802 -0.772884 1.2791 0.787628
50 1 5.5728 -3.32687 1.23956 -0.1665 -0.669844 0.719259
51 1 -5.62822 -4.39613 4.52158 -0.795102 1.35758 -1.11411
52 1 -5.41516 -3.60238 3.95362 -0.0743042 -0.864118 -1.49953
53 1 -4.8759 -3.68835 3.11656 -0.0465204 0.967616 0.242855
54 1 -5.22343 -2.8657 2.70016 -1.24797 -0.884357 -0.0423325
55 1 -4.49064 -2.86121 2.05031 -0.89592 -0.101736 -0.850468
56 1 -5.27959 -3.09273 1.5885 -0.648945 0.588627 -0.671826
57 1 -5.83587 -2.27694 1.68213 -1.2397 -0.217265 -0.696242
58 1 -5.44707 -1.46197 1.57697 -2.06565 2.38978 -0.906799
59 1 -5.84486 -0.983246 2.3144 -1.07607 -1.29163 0.847639
60 1 -5.50051 -0.0769731 2.53203 2.05854 0.408646 -0.652002
61 1 -5.3297 0.715373 2.99654 -1.16825 0.477954 -0.306864
62 1 -4.55949 0.399166 2.41001 -1.05408 -0.282155 0.0555849
63 1 -4.05921 -0.432113 2.11335 0.0470755 0.680784 0.963179
64 1 -4.66565 -0.586657 2.778 0.450214 -2.95057 0.744776
65 1 -4.10281 -1.07532 3.32085 -1.27551 -1.21873 1.20701
66 1 -3.39108 -0.991268 2.60687 -0.289221 0.565462 -1.53519
67 1 -2.66976 -0.920203 1.91283 0.223354 0.107702 0.282436
68 1 -2.19293 -0.0699594 1.73509 -0.737427 -0.665915 -0.941683
69 1 -2.26591 -0.0372961 2.6978 -1.11204 0.0474753 0.377197
70 1 -2.35835 -0.094038 3.7286 0.656631 0.783282 0.798817
71 1 -2.41479 0.812928 3.99991 -0.0470007 -0.206034 -0.408289
72 1 -2.93524 1.56661 4.38556 -2.1192 -1.52854 -0.305681
73 1 -3.04141 2.28589 5.05286 1.51702 -1.89781 0.640704
74 1 -3.74984 2.21429 5.66437 0.220841 -0.48682 -0.317288
75 1 -4.35999 2.84566 6.10726 -0.497363 -1.10558 -0.415291
76 1 -4.46231 3.58562 6.73547 0.00434863 -0.140659 -0.505909
77 1 -4.41263 3.48671 7.69295 0.260285 0.088137 -0.192308
78 1 -5.32954 3.31208 7.47822 0.732059 -0.0211339 0.569681
79 1 -5.60444 2.64179 6.81784 -0.00917281 0.759706 -0.208507
80 1 -6.38953 2.43671 7.23081 -0.352523 0.830009 -0.498218
81 1 -6.90266 2.27088 6.44198 0.108459 0.391963 1.051
82 1 -6.32213 2.96359 6.18437 -2.48356 -0.616832 0.0750125
83 1 -5.58026 3.15237 5.59464 -0.734296 0.926382 1.16162
84 1 -5.33715 3.61727 4.85999 0.53135 0.967421 1.98928
85 1 -4.76129 3.42395 4.05557 -0.161786 0.848678 -0.507524
86 1 -5.57933 3.29077 3.59001 0.76437 1.49311 0.174009
87 1 -4.85448 3.71099 3.1216 1.12569 0.42487 0.590768
88 1 -5.53406 3.7242 2.46005 -0.368817 0.900954 -0.357514
89 1 -5.80711 4.03101 1.57183 0.951595 -1.01975 0.0195002
90 1 -5.07182 4.65196 1.52769 1.68675 -1.25528 1.14318
91 1 -4.62688 4.46619 0.666211 1.69869 -0.826558 -1.19846
92 1 -3.76445 4.26908 0.263879 0.791457 -1.01742 0.625127
93 1 -4.51061 4.03737 -0.34069 -1.06036 1.15094 0.591286
94 1 -4.29236 4.64758 -1.02115 1.83621 -1.78177 1.61712
95 1 -4.23686 4.31866 -1.95866 1.185 -0.78437 0.785444
96 1 -4.32501 3.43258 -2.53061 0.152713 -1.4462 -0.525149
97 1 -4.53236 3.39829 -1.58006 -1.41679 0.651512 1.3678
98 1 -4.97186 2.62793 -1.95576 -0.0228565 -2.16139 0.642344
99 1 -5.09094 2.2334 -1.09499 -0.410277 1.04193 2.09985
100 1 -4.44287 2.83627 -0.729811 1.27578 0.637306 -1.0661
ITEM: TIMESTEP
2
ITEM: NUMBER OF ATOMS
100
ITEM: BOX BOUNDS pp pp pp
-4.9281385000000000e+01 5.0718615000000000e+01
-5.1424891000000002e+01 4.8575108999999998e+01
-4.8996873000000001e+01 5.1003126999999999e+01
ITEM: ATOMS id type xu yu zu vx vy vz
1 1 -4.91676 -3.77989 4.82232 -0.0630905 0.196218 1.15077
2 1 -4.68757 -3.17937 5.49198 1.28383 0.409418 -0.700602
3 1 -3.95963 -3.473 6.04095 0.529755 -0.436517 0.040579
4 1 -3.25419 -3.5635 5.42867 -0.7729 -0.921244 0.0833426
5 1 -3.52134 -4.23531 4.87031 -0.398684 0.914877 -0.142378
6 1 -3.35483 -4.73293 5.77998 0.742093 -1.01746 1.64242
7 1 -2.4617 -4.96094 5.4393 -2.02272 -0.112982 -1.63704
8 1 -1.60251 -5.08512 5.88702 0.692883 0.798543 -0.909398
9 1 -1.12005 -4.49102 6.49596 -0.0254118 0.283574 1.18314
10 1 -0.340163 -3.8736 6.294 -0.17148 -1.01324 1.15022
11 1 0.233795 -3.66228 5.53518 0.292044 1.02456 -1.49368
12 1 0.719298 -3.05503 6.03724 -0.85112 -0.168665 -0.0631564
13 1 1.25972 -2.33753 5.4548 -0.414755 -1.45124 1.49692
14 1 1.37461 -2.32544 4.49689 -1.12577 0.962427 -0.844404
15 1 1.85825 -3.07612 4.167 2.32123 -1.50428 -1.571
16 1 1.92791 -4.04533 4.22392 0.151682 0.167921 2.55517
17 1 2.84088 -4.2456 3.9221 2.41862 0.480965 0.471584
18 1 2.71647 -4.7874 4.69476 1.27511 -0.249833 -1.07441
19 1 3.69017 -4.56535 4.45336 -1.85249 -1.01695 2.30522
20 1 4.11151 -5.02467 3.6898 0.575292 0.805153 -1.12286
21 1 4.94546 -4.88061 3.22101 0.212962 0.504723 -0.433147
22 1 5.30591 -4.57622 2.38799 1.95841 -0.19168 -0.590755
23 1 6.17908 -4.55329 2.8178 -1.76207 0.369146 0.348754
24 1 6.74408 -4.77416 3.54318 -0.234033 0.390571 -1.15733
25 1 7.2922 -4.49447 2.79239 -0.955384 -1.49639 -0.244871
26 1 7.90195 -3.87642 2.34999 0.579598 0.899162 -0.323046
27 1 8.52698 -4.04994 1.6712 0.50331 -0.737942 -0.930689
28 1 9.19089 -3.55302 1.10997 -0.778846 -1.13605 0.4005
29 1 9.31544 -4.38012 0.604174 -0.795903 0.0333384 -0.0918515
30 1 8.44885 -4.6395 0.856626 -1.11091 -0.291316 1.1583
31 1 8.28299 -5.14609 1.64492 -0.13055 0.982678 1.97205
32 1 7.51392 -4.88271 1.10691 0.091509 1.45598 -0.661204
33 1 7.32244 -5.80337 1.17713 -0.831711 0.444901 -0.00896372
34 1 7.57109 -6.6322 0.817866 0.15462 0.768524 -1.11506
35 1 7.18317 -6.1617 0.0507918 0.579714 -0.348126 0.799204
36 1 7.27989 -5.66451 -0.79139 -1.18115 0.377137 0.0625684
37 1 6.45476 -5.70056 -1.37441 -0.0694694 -0.360711 1.00865
38 1 5.67208 -5.76055 -1.89412 -0.211036 0.181824 -1.01297
39 1 5.39224 -5.50919 -1.01588 0.893652 1.8309 0.422316
40 1 6.08735 -4.88872 -0.927547 0.210175 0.315551 -0.809511
41 1 5.98815 -4.57052 -1.84963 1.26703 -0.312723 -0.619644
42 1 5.53979 -4.57571 -2.71687 0.768156 1.0364 -1.02523
43 1 6.09208 -3.75656 -2.6688 1.99842 -1.15284 1.00514
44 1 6.28581 -2.99973 -2.08139 2.39076 -1.1557 -0.442788
45 1 5.62636 -2.86821 -1.44864 -0.265141 0.537404 -1.73937
46 1 5.04599 -3.58311 -1.17831 -0.714161 1.37596 -0.175356
47 1 4.93442 -4.25043 -0.421527 0.829972 -1.05462 -0.641129
48 1 5.10167 -4.84457 0.303151 -2.21162 3.12741 -0.840938
49 1 5.55055 -4.18713 0.900376 -0.839388 0.993105 0.628392
50 1 5.57197 -3.32981 1.24332 -0.162711 -0.478621 0.797478
51 1 -5.63193 -4.38888 4.51588 -0.685842 1.53347 -1.15962
52 1 -5.41553 -3.60698 3.94581 -0.0699367 -0.963549 -1.61198
53 1 -4.87642 -3.68325 3.11797 -0.151786 1.06049 0.312301
54 1 -5.22944 -2.87033 2.6999 -1.15582 -0.957491 -0.0676161
55 1 -4.49508 -2.86166 2.04633 -0.881264 -0.0764081 -0.735529
56 1 -5.28321 -3.08958 1.58506 -0.804268 0.664509 -0.705858
57 1 -5.84227 -2.27913 1.67876 -1.29823 -0.603982 -0.657342
58 1 -5.457 -1.44915 1.57238 -1.92832 2.68174 -0.930394
59 1 -5.85008 -0.989438 2.31867 -1.00734 -1.16524 0.87317
60 1 -5.49067 -0.0754823 2.52844 1.8696 0.16631 -0.786434
61 1 -5.33509 0.717926 2.99492 -0.985315 0.545382 -0.342886
62 1 -4.56482 0.397626 2.4104 -1.07477 -0.331437 0.102518
63 1 -4.05884 -0.428027 2.11757 0.088365 0.955847 0.727636
64 1 -4.66416 -0.601432 2.78204 0.131281 -2.93753 0.839417
65 1 -4.10848 -1.0817 3.32691 -0.960817 -1.34716 1.22638
66 1 -3.39237 -0.988587 2.59939 -0.238994 0.499623 -1.43771
67 1 -2.66879 -0.919406 1.91449 0.164034 0.204823 0.377315
68 1 -2.19677 -0.0735506 1.7305 -0.797444 -0.762669 -0.87865
69 1 -2.27154 -0.0371196 2.70021 -1.14053 0.0229202 0.572134
70 1 -2.35501 -0.090251 3.73194 0.679683 0.715192 0.533136
71 1 -2.4152 0.812302 3.99804 -0.121521 -0.0286319 -0.337085
72 1 -2.94569 1.55892 4.38409 -2.06155 -1.54958 -0.282005
73 1 -3.03356 2.27623 5.05567 1.61812 -1.96711 0.489663
74 1 -3.74913 2.21199 5.66309 0.0697937 -0.434487 -0.197923
75 1 -4.36239 2.84012 6.10519 -0.463309 -1.10732 -0.409792
76 1 -4.46231 3.58476 6.73287 -0.00175849 -0.20624 -0.532699
77 1 -4.4113 3.48716 7.69195 0.279098 0.0915407 -0.209152
78 1 -5.32598 3.31181 7.48089 0.685562 -0.0875707 0.494562
79 1 -5.60346 2.64588 6.81664 0.389909 0.875232 -0.267431
80 1 -6.39202 2.44069 7.22877 -0.622112 0.769284 -0.307776
81 1 -6.90232 2.27261 6.44726 -0.0025645 0.272456 1.05698
82 1 -6.33448 2.96081 6.18449 -2.42448 -0.468599 -0.0379605
83 1 -5.58426 3.15639 5.60144 -0.870789 0.684622 1.5583
84 1 -5.33395 3.62259 4.86866 0.754254 1.15658 1.47685
85 1 -4.76219 3.42817 4.05385 -0.188406 0.840726 -0.157587
86 1 -5.57563 3.29823 3.59082 0.698673 1.48605 0.143055
87 1 -4.84876 3.71324 3.12426 1.145 0.481059 0.445658
88 1 -5.53607 3.72877 2.45799 -0.412867 0.922613 -0.437706
89 1 -5.80226 4.02587 1.5721 0.986383 -1.02786 0.0746785
90 1 -5.06329 4.6456 1.53318 1.7285 -1.29595 1.04043
91 1 -4.6184 4.46208 0.660423 1.66764 -0.807638 -1.09292
92 1 -3.76083 4.26396 0.266869 0.668159 -1.03677 0.559621
93 1 -4.51577 4.04294 -0.337397 -1.00658 1.0597 0.750021
94 1 -4.28308 4.63873 -1.01359 1.88117 -1.74113 1.3809
95 1 -4.23097 4.31437 -1.95483 1.16817 -0.932267 0.743521
96 1 -4.32423 3.42592 -2.5327 0.154813 -1.21556 -0.287495
97 1 -4.53949 3.40152 -1.57344 -1.44067 0.628453 1.24771
98 1 -4.97192 2.6172 -1.9526 0.00575352 -2.11198 0.630025
99 1 -5.09302 2.23857 -1.08444 -0.424142 1.02486 2.11788
100 1 -4.43645 2.83941 -0.734983 1.29398 0.618443 -0.995893
ITEM: TIMESTEP
3
ITEM: NUMBER OF ATOMS
100
ITEM: BOX BOUNDS pp pp pp
-4.9281385000000000e+01 5.0718615000000000e+01
-5.1424891000000002e+01 4.8575108999999998e+01
-4.8996873000000001e+01 5.1003126999999999e+01
ITEM: ATOMS id type xu yu zu vx vy vz
1 1 -4.91728 -3.77944 4.82778 -0.155342 -0.0262886 1.01938
2 1 -4.68104 -3.177 5.48881 1.33418 0.549136 -0.557157
3 1 -3.95719 -3.4752 6.04136 0.43472 -0.43831 0.133224
4 1 -3.25759 -3.56756 5.4294 -0.565186 -0.684316 0.213277
5 1 -3.52348 -4.23166 4.86969 -0.464481 0.521179 -0.114447
6 1 -3.35102 -4.73771 5.78752 0.766094 -0.884509 1.37242
7 1 -2.47189 -4.96145 5.43127 -2.01687 -0.0981705 -1.56892
8 1 -1.59911 -5.08099 5.88251 0.64923 0.861411 -0.901244
9 1 -1.11991 -4.48943 6.50166 0.076235 0.346595 1.09329
10 1 -0.341281 -3.87891 6.29972 -0.256155 -1.10119 1.11644
11 1 0.234872 -3.65756 5.52752 0.121029 0.855054 -1.55302
12 1 0.715705 -3.05501 6.03682 -0.586309 0.175835 -0.0961716
13 1 1.25727 -2.3453 5.46264 -0.559881 -1.65246 1.61012
14 1 1.36891 -2.32055 4.49276 -1.12995 0.956842 -0.799732
15 1 1.86993 -3.08388 4.15912 2.32431 -1.5445 -1.5645
16 1 1.92889 -4.04441 4.23663 0.261018 0.179431 2.52242
17 1 2.8527 -4.24305 3.92438 2.28645 0.551419 0.436947
18 1 2.72334 -4.78858 4.68934 1.44794 -0.23358 -1.07862
19 1 3.68057 -4.57071 4.46486 -1.94722 -1.13083 2.27367
20 1 4.11433 -5.0205 3.68435 0.535083 0.870097 -1.03458
21 1 4.94646 -4.87811 3.21892 0.199153 0.501227 -0.414838
22 1 5.31585 -4.57715 2.38505 1.98445 -0.185484 -0.59423
23 1 6.16999 -4.55141 2.81933 -1.84415 0.38667 0.274501
24 1 6.74309 -4.77222 3.53746 -0.169344 0.378807 -1.11461
25 1 7.28747 -4.50189 2.79117 -0.913173 -1.45232 -0.269187
26 1 7.90455 -3.87198 2.34866 0.453344 0.858041 -0.211536
27 1 8.52998 -4.05337 1.66628 0.677164 -0.631927 -1.00889
28 1 9.18675 -3.55907 1.11209 -0.870288 -1.26941 0.444082
29 1 9.3117 -4.37971 0.60375 -0.709079 0.119626 -0.0788627
30 1 8.44331 -4.64104 0.862128 -1.08447 -0.322168 1.02761
31 1 8.28217 -5.1412 1.65479 -0.210127 0.976813 1.96893
32 1 7.51427 -4.87529 1.10376 0.0445031 1.48545 -0.586202
33 1 7.31817 -5.80106 1.17722 -0.873363 0.488591 0.0419626
34 1 7.57187 -6.62856 0.811995 0.166768 0.685299 -1.21241
35 1 7.18617 -6.16341 0.0547716 0.612359 -0.318159 0.76847
36 1 7.27358 -5.66274 -0.791136 -1.33736 0.324399 0.0518584
37 1 6.45511 -5.70257 -1.3691 0.182822 -0.443631 1.09754
38 1 5.67084 -5.75962 -1.89939 -0.275441 0.198146 -1.06648
39 1 5.39643 -5.50022 -1.01374 0.766594 1.73321 0.416052
40 1 6.08852 -4.88658 -0.931618 0.277151 0.558368 -0.811958
41 1 5.99441 -4.57218 -1.85267 1.23522 -0.35168 -0.601977
42 1 5.54388 -4.5703 -2.72181 0.862943 1.11915 -0.945396
43 1 6.10194 -3.76244 -2.66365 1.9488 -1.19383 1.04826
44 1 6.29815 -3.00575 -2.08412 2.5274 -1.24304 -0.624184
45 1 5.62461 -2.86544 -1.45693 -0.414524 0.565629 -1.59846
46 1 5.04238 -3.57658 -1.17884 -0.728616 1.23491 -0.0324734
47 1 4.93863 -4.25533 -0.425184 0.848963 -0.873926 -0.862843
48 1 5.0908 -4.82878 0.299217 -2.13003 3.15571 -0.694712
49 1 5.54618 -4.18296 0.903086 -0.909498 0.658452 0.447047
50 1 5.57117 -3.33165 1.24753 -0.156797 -0.238453 0.896303
51 1 -5.63508 -4.38079 4.50999 -0.577132 1.69083 -1.18791
52 1 -5.41586 -3.61202 3.9375 -0.0676843 -1.04156 -1.69898
53 1 -4.87742 -3.67774 3.11968 -0.233805 1.13116 0.365251
54 1 -5.23499 -2.87527 2.69948 -1.06204 -1.01165 -0.110101
55 1 -4.49945 -2.86197 2.04296 -0.868398 -0.0500503 -0.608233
56 1 -5.28763 -3.08608 1.58144 -0.959802 0.727685 -0.74491
57 1 -5.84885 -2.28298 1.67555 -1.31191 -0.874785 -0.630974
58 1 -5.46635 -1.43515 1.56766 -1.83457 2.85956 -0.95587
59 1 -5.85494 -0.994899 2.32313 -0.935391 -1.00479 0.918265
60 1 -5.48182 -0.07531 2.52416 1.66406 -0.107923 -0.921887
61 1 -5.33956 0.720827 2.99312 -0.80584 0.610755 -0.378889
62 1 -4.57024 0.395852 2.41103 -1.08519 -0.373702 0.153159
63 1 -4.05833 -0.422554 2.12063 0.0985365 1.23013 0.511833
64 1 -4.66434 -0.616032 2.78639 -0.202808 -2.88334 0.86423
65 1 -4.11242 -1.08879 3.33311 -0.59018 -1.5015 1.26204
66 1 -3.39347 -0.986271 2.59249 -0.209954 0.420634 -1.30237
67 1 -2.66812 -0.918155 1.9166 0.105394 0.28704 0.463981
68 1 -2.2009 -0.0775861 1.72631 -0.850757 -0.841971 -0.787338
69 1 -2.27731 -0.0370669 2.70352 -1.16434 -0.00213788 0.733958
70 1 -2.35155 -0.0868861 3.73393 0.702765 0.61908 0.261922
71 1 -2.416 0.812642 3.99654 -0.198864 0.173958 -0.258686
72 1 -2.95585 1.55112 4.38274 -2.00117 -1.57017 -0.258648
73 1 -3.02523 2.26622 5.05776 1.70232 -2.0372 0.353109
74 1 -3.74914 2.20995 5.66239 -0.0645141 -0.382428 -0.0939685
75 1 -4.36463 2.83459 6.10317 -0.432163 -1.09798 -0.395772
76 1 -4.46233 3.58356 6.73014 -0.0067213 -0.280972 -0.559159
77 1 -4.40984 3.48763 7.69086 0.310596 0.098182 -0.230026
78 1 -5.32269 3.3112 7.48317 0.626276 -0.155333 0.416908
79 1 -5.60055 2.65055 6.81516 0.744408 0.984788 -0.315373
80 1 -6.39575 2.4444 7.22773 -0.83403 0.725295 -0.104013
81 1 -6.90268 2.2736 6.45254 -0.173323 0.0971215 1.04993
82 1 -6.34638 2.95891 6.18399 -2.31063 -0.274074 -0.168965
83 1 -5.58897 3.15922 5.61022 -1.00717 0.461713 1.92614
84 1 -5.32961 3.62883 4.87476 0.973731 1.32217 0.990023
85 1 -4.76317 3.43236 4.054 -0.193731 0.835295 0.229604
86 1 -5.57234 3.30563 3.59144 0.601969 1.47233 0.099823
87 1 -4.84303 3.7158 3.12605 1.13672 0.544264 0.253469
88 1 -5.53819 3.73342 2.45567 -0.415666 0.933937 -0.458652
89 1 -5.79724 4.02073 1.57257 1.01875 -1.02096 0.101725
90 1 -5.05454 4.639 1.5381 1.77538 -1.34652 0.913647
91 1 -4.6102 4.45811 0.655282 1.59289 -0.774177 -0.941854
92 1 -3.75777 4.25871 0.269475 0.567039 -1.06452 0.472731
93 1 -4.52068 4.04796 -0.333189 -0.960136 0.932249 0.950508
94 1 -4.27354 4.63017 -1.00734 1.94307 -1.66694 1.09835
95 1 -4.22518 4.30933 -1.95122 1.15119 -1.08304 0.70024
96 1 -4.32346 3.42043 -2.53349 0.150832 -0.979423 -0.0124001
97 1 -4.54677 3.40458 -1.56758 -1.47717 0.580604 1.07062
98 1 -4.9718 2.60681 -1.94946 0.0505326 -2.03334 0.636077
99 1 -5.09518 2.24365 -1.07381 -0.441575 1.00658 2.13043
100 1 -4.42993 2.84245 -0.73977 1.31877 0.594825 -0.91287
ITEM: TIMESTEP
4
ITEM: NUMBER OF ATOMS
100
ITEM: BOX BOUNDS pp pp pp
-4.9281385000000000e+01 5.0718615000000000e+01
-5.1424891000000002e+01 4.8575108999999998e+01
-4.8996873000000001e+01 5.1003126999999999e+01
ITEM: ATOMS id type xu yu zu vx vy vz
1 1 -4.91831 -3.78015 4.83251 -0.260218 -0.255595 0.86589
2 1 -4.67423 -3.17388 5.48641 1.39105 0.699364 -0.404139
3 1 -3.95528 -3.47739 6.04228 0.318545 -0.436954 0.244072
4 1 -3.25985 -3.57035 5.43081 -0.325978 -0.42474 0.348972
5 1 -3.52598 -4.2301 4.86917 -0.537065 0.0922893 -0.0949286
6 1 -3.34717 -4.74178 5.7937 0.755585 -0.73439 1.09756
7 1 -2.48187 -4.96192 5.42361 -1.94273 -0.0953681 -1.49249
8 1 -1.59602 -5.07651 5.87801 0.572997 0.935904 -0.903868
9 1 -1.11929 -4.48756 6.50689 0.160922 0.392607 0.997825
10 1 -0.342724 -3.88461 6.30516 -0.302776 -1.16798 1.0425
11 1 0.235005 -3.65373 5.51965 -0.0760729 0.674929 -1.57712
12 1 0.713435 -3.05327 6.03628 -0.330108 0.506742 -0.116251
13 1 1.25412 -2.35405 5.4709 -0.691937 -1.83851 1.66523
14 1 1.36331 -2.31587 4.48889 -1.09484 0.881965 -0.737009
15 1 1.8815 -3.09157 4.15136 2.28076 -1.48307 -1.53118
16 1 1.93052 -4.04354 4.24915 0.409028 0.149052 2.4786
17 1 2.86374 -4.24008 3.92647 2.11298 0.644528 0.393995
18 1 2.73095 -4.78973 4.68398 1.56271 -0.241458 -1.05253
19 1 3.6707 -4.57666 4.4761 -1.95994 -1.25236 2.20012
20 1 4.11686 -5.01597 3.67946 0.462715 0.949264 -0.905535
21 1 4.94745 -4.8756 3.21687 0.204637 0.504904 -0.417441
22 1 5.32575 -4.57807 2.38205 1.93624 -0.18618 -0.619423
23 1 6.16064 -4.54943 2.82055 -1.85838 0.406582 0.235103
24 1 6.74238 -4.77037 3.53203 -0.124785 0.356009 -1.04211
25 1 7.28307 -4.50899 2.7897 -0.825197 -1.37108 -0.340841
26 1 7.90649 -3.86784 2.34788 0.322853 0.784862 -0.10519
27 1 8.53376 -4.05626 1.66111 0.809255 -0.524545 -1.02945
28 1 9.18219 -3.56571 1.11441 -0.940195 -1.3696 0.476658
29 1 9.30835 -4.37892 0.603385 -0.642752 0.183769 -0.0687292
30 1 8.43801 -4.64273 0.866902 -1.01324 -0.352424 0.869084
31 1 8.28089 -5.13632 1.66461 -0.309668 0.97567 1.9521
32 1 7.51436 -4.86785 1.10105 -0.0148479 1.46853 -0.487943
33 1 7.31371 -5.79849 1.17755 -0.903173 0.548809 0.0835956
34 1 7.57275 -6.62535 0.805742 0.193484 0.596408 -1.26459
35 1 7.18929 -6.16489 0.0584765 0.625813 -0.257907 0.687831
36 1 7.26652 -5.66126 -0.790871 -1.47214 0.265231 0.0679516
37 1 6.45659 -5.705 -1.36344 0.376633 -0.531175 1.14722
38 1 5.66933 -5.75857 -1.90479 -0.312398 0.226875 -1.06277
39 1 5.39991 -5.49186 -1.01172 0.612761 1.59485 0.374188
40 1 6.09012 -4.88313 -0.935667 0.381846 0.829936 -0.801601
41 1 6.0005 -4.57404 -1.85565 1.19751 -0.387156 -0.602175
42 1 5.54842 -4.56452 -2.72632 0.950775 1.18324 -0.857724
43 1 6.11156 -3.7685 -2.65832 1.90679 -1.23048 1.07902
44 1 6.31108 -3.01216 -2.08763 2.6223 -1.30733 -0.748059
45 1 5.62222 -2.86255 -1.46462 -0.520637 0.582825 -1.50238
46 1 5.0387 -3.57077 -1.17863 -0.740298 1.0899 0.114049
47 1 4.94291 -4.25917 -0.430156 0.853505 -0.629196 -1.16614
48 1 5.08037 -4.81301 0.296203 -2.03652 3.12112 -0.474117
49 1 5.54146 -4.18055 0.904847 -0.979601 0.303131 0.256913
50 1 5.5704 -3.3322 1.25228 -0.148975 0.0275667 1.00685
51 1 -5.6377 -4.37197 4.504 -0.475136 1.82154 -1.19741
52 1 -5.4162 -3.61739 3.92882 -0.0715097 -1.09341 -1.76122
53 1 -4.87876 -3.67194 3.12162 -0.286873 1.17667 0.398267
54 1 -5.24006 -2.88044 2.6988 -0.971011 -1.04371 -0.169401
55 1 -4.50377 -2.86216 2.04025 -0.860637 -0.0245254 -0.474228
56 1 -5.29281 -3.0823 1.57761 -1.10563 0.774302 -0.786255
57 1 -5.85539 -2.28788 1.67245 -1.28949 -1.02871 -0.615747
58 1 -5.47534 -1.42055 1.56282 -1.78098 2.9299 -0.982154
59 1 -5.85943 -0.999485 2.32786 -0.861684 -0.820352 0.978849
60 1 -5.47403 -0.0765615 2.51922 1.44325 -0.393329 -1.0486
61 1 -5.34314 0.724034 2.99113 -0.633239 0.661324 -0.421652
62 1 -4.57568 0.393889 2.41193 -1.08292 -0.404303 0.206063
63 1 -4.05785 -0.415725 2.12269 0.0690301 1.4935 0.331924
64 1 -4.66619 -0.630266 2.79069 -0.524138 -2.79778 0.820229
65 1 -4.11438 -1.09671 3.33953 -0.182071 -1.66873 1.30365
66 1 -3.39447 -0.984381 2.58636 -0.201452 0.330883 -1.13477
67 1 -2.66774 -0.916535 1.91913 0.0466823 0.351066 0.542971
68 1 -2.20528 -0.0819703 1.72263 -0.895634 -0.900417 -0.670297
69 1 -2.28319 -0.0371409 2.70755 -1.18326 -0.0277843 0.859759
70 1 -2.34798 -0.0840602 3.73456 0.725068 0.50595 -0.00714479
71 1 -2.41719 0.814042 3.99545 -0.276403 0.387811 -0.177781
72 1 -2.96571 1.54321 4.38151 -1.94015 -1.58846 -0.235154
73 1 -3.01654 2.25586 5.0592 1.76225 -2.10735 0.237669
74 1 -3.74977 2.20817 5.66215 -0.172681 -0.332396 -0.0124961
75 1 -4.36671 2.82914 6.10123 -0.405807 -1.07699 -0.372999
76 1 -4.46237 3.58195 6.72728 -0.0107928 -0.363437 -0.584163
77 1 -4.40819 3.48814 7.68965 0.352143 0.107547 -0.255478
78 1 -5.31972 3.31026 7.48506 0.558314 -0.220744 0.340605
79 1 -5.59601 2.65573 6.81349 1.03081 1.07973 -0.345005
80 1 -6.40036 2.44794 7.22773 -0.967882 0.703635 0.100322
81 1 -6.90405 2.27358 6.45776 -0.393392 -0.123996 1.02839
82 1 -6.35759 2.95807 6.1828 -2.15995 -0.0458716 -0.307163
83 1 -5.59433 3.16101 5.6207 -1.1202 0.284426 2.22066
84 1 -5.32421 3.63581 4.87856 1.17015 1.44151 0.574451
85 1 -4.76412 3.43653 4.05615 -0.179744 0.832363 0.633228
86 1 -5.56961 3.31295 3.59181 0.484371 1.45519 0.0455643
87 1 -4.8374 3.71868 3.12679 1.10377 0.60969 0.0308094
88 1 -5.54022 3.73811 2.4534 -0.381857 0.934198 -0.421973
89 1 -5.79207 4.01566 1.57311 1.04766 -0.998697 0.09683
90 1 -5.04554 4.63213 1.54232 1.82452 -1.40521 0.768635
91 1 -4.60248 4.45434 0.651005 1.47632 -0.726557 -0.749315
92 1 -3.75515 4.25331 0.271596 0.492414 -1.10017 0.366921
93 1 -4.52538 4.05227 -0.327892 -0.921101 0.779281 1.17627
94 1 -4.26365 4.62206 -1.00261 2.01872 -1.57082 0.784128
95 1 -4.21946 4.30354 -1.94783 1.13485 -1.23317 0.655436
96 1 -4.32272 3.41613 -2.53282 0.142294 -0.740789 0.28797