ITEM: TIMESTEP
0
ITEM: NUMBER OF ATOMS
100
ITEM: BOX BOUNDS pp pp pp
-4.9281385000000000e+01 5.0718615000000000e+01
-5.1424891000000002e+01 4.8575108999999998e+01
-4.8996873000000001e+01 5.1003126999999999e+01
ITEM: ATOMS id type xu yu zu vx vy vz
42 1 5.53309 -4.58509 -2.70592 0.571753 0.827018 -1.15081
43 1 6.07154 -3.74549 -2.67831 2.11358 -1.05827 0.888128
96 1 -4.32576 3.44038 -2.52745 0.142899 -1.66875 -0.712226
37 1 6.45843 -5.69771 -1.38328 -0.693058 -0.217299 0.742537
38 1 5.67334 -5.76233 -1.88508 -0.0299629 0.185099 -0.748571
46 1 5.05298 -3.5982 -1.17521 -0.683433 1.62749 -0.430139
41 1 5.97523 -4.56781 -1.84308 1.30919 -0.227725 -0.709056
45 1 5.62718 -2.87323 -1.42946 0.117522 0.463963 -2.11958
44 1 6.26359 -2.98922 -2.07925 2.03843 -0.935618 0.0466804
97 1 -4.52532 3.39501 -1.58712 -1.40718 0.646068 1.4172
98 1 -4.97169 2.63882 -1.95903 -0.0306478 -2.17511 0.672787
95 1 -4.24282 4.32221 -1.96269 1.20096 -0.643029 0.825751
39 1 5.38235 -5.52801 -1.01978 1.05149 1.88626 0.317457
35 1 7.17785 -6.1582 0.0429553 0.469967 -0.326835 0.726743
36 1 7.29 -5.66873 -0.792364 -0.830743 0.458871 0.152796
47 1 4.92646 -4.23874 -0.416536 0.747388 -1.21857 -0.429204
40 1 6.0855 -4.88983 -0.919617 0.202938 -0.0513224 -0.762442
99 1 -5.08892 2.22815 -1.10544 -0.402071 1.05484 2.07819
100 1 -4.44921 2.83304 -0.724322 1.2654 0.653269 -1.12227
94 1 -4.30145 4.65654 -1.02976 1.80822 -1.78305 1.79979
93 1 -4.50517 4.03144 -0.343309 -1.11813 1.20131 0.483797
92 1 -3.76874 4.27413 0.260618 0.930664 -1.00686 0.667394
34 1 7.56953 -6.64064 0.827666 0.169601 0.909771 -0.815106
33 1 7.33024 -5.80764 1.17779 -0.718407 0.439883 -0.128988
31 1 8.28373 -5.15601 1.62529 -0.0442682 1.00419 1.94328
49 1 5.55828 -4.19992 0.8925 -0.712652 1.49852 0.916121
48 1 5.12444 -4.87499 0.312299 -2.32137 2.91081 -0.924528
32 1 7.51261 -4.89647 1.11403 0.167684 1.24388 -0.7386
30 1 8.45979 -4.63693 0.84403 -1.03913 -0.219353 1.3326
29 1 9.32447 -4.3794 0.605235 -1.02855 -0.192 -0.120973
28 1 9.19761 -3.54325 1.10648 -0.553575 -0.800857 0.291925
27 1 8.52399 -4.04154 1.67927 0.0765949 -0.939543 -0.651462
57 1 -5.82987 -2.27696 1.68572 -1.1364 0.26527 -0.74662
56 1 -5.27672 -3.09547 1.59178 -0.503222 0.504525 -0.645177
50 1 5.57364 -3.32311 1.23613 -0.168367 -0.798766 0.666432
58 1 -5.43634 -1.47304 1.58145 -2.24189 1.99667 -0.886792
89 1 -5.81178 4.03607 1.5719 0.915691 -0.997626 -0.0588828
90 1 -5.08016 4.65815 1.52175 1.65342 -1.22624 1.216
91 1 -4.63539 4.47035 0.672408 1.68572 -0.830765 -1.25488
53 1 -4.87596 -3.69293 3.11554 0.0766654 0.855881 0.160019
22 1 5.28719 -4.57418 2.394 1.73791 -0.220727 -0.619198
23 1 6.19537 -4.55684 2.81336 -1.46158 0.344106 0.548667
26 1 7.89506 -3.88546 2.35427 0.766335 0.867017 -0.511213
25 1 7.30166 -4.4795 2.79511 -0.880448 -1.44721 -0.35126
54 1 -5.21696 -2.86148 2.70033 -1.3341 -0.795599 -0.0346608
55 1 -4.48613 -2.86064 2.05483 -0.909708 -0.124248 -0.947795
59 1 -5.83932 -0.976521 2.3102 -1.139 -1.37353 0.844509
66 1 -3.38948 -0.994242 2.61474 -0.362687 0.616534 -1.58926
67 1 -2.67103 -0.920483 1.91166 0.283665 -0.00114747 0.179338
62 1 -4.55428 0.400448 2.40984 -1.02632 -0.23052 0.0142222
64 1 -4.66866 -0.571927 2.7746 0.727697 -2.91856 0.592734
60 1 -5.51126 -0.0795687 2.53496 2.22874 0.597522 -0.528907
63 1 -4.05931 -0.434834 2.10794 -0.01009 0.413921 1.19678
68 1 -2.1894 -0.0668915 1.73992 -0.672234 -0.555055 -0.975553
69 1 -2.26042 -0.0375943 2.69644 -1.07935 0.0715834 0.153747
61 1 -5.3234 0.713146 2.99798 -1.3505 0.420975 -0.264305
88 1 -5.53238 3.71976 2.46156 -0.280712 0.870298 -0.218953
20 1 4.10572 -5.03227 3.70144 0.546375 0.740969 -1.15092
52 1 -5.41478 -3.59834 3.96081 -0.0769612 -0.74803 -1.36112
16 1 1.92699 -4.04647 4.1982 0.0932358 0.019307 2.56972
17 1 2.81589 -4.24995 3.91709 2.51739 0.415401 0.53025
19 1 3.70703 -4.55616 4.43047 -1.45539 -0.844744 2.22077
21 1 4.943 -4.88577 3.22574 0.29589 0.532601 -0.529537
24 1 6.74721 -4.77806 3.55485 -0.401885 0.376363 -1.14325
14 1 1.38532 -2.33424 4.50564 -0.959495 0.689638 -0.898207
15 1 1.83566 -3.06268 4.1824 2.12916 -1.04892 -1.46044
65 1 -4.09573 -1.06951 3.31484 -1.52166 -1.12329 1.20587
70 1 -2.36157 -0.0980838 3.72395 0.634207 0.816013 1.05197
72 1 -2.9245 1.5742 4.38715 -2.17248 -1.50852 -0.329848
71 1 -2.41473 0.814363 4.00212 0.0227417 -0.348174 -0.468635
86 1 -5.58327 3.2833 3.58908 0.792843 1.49106 0.192637
85 1 -4.76057 3.41969 4.05893 -0.116204 0.859853 -0.802983
87 1 -4.86002 3.70899 3.11835 1.07665 0.379201 0.676755
8 1 -1.60948 -5.09261 5.89635 0.652386 0.714756 -0.976069
7 1 -2.44215 -4.95953 5.4562 -1.81222 -0.182757 -1.72076
51 1 -5.62398 -4.40246 4.52702 -0.899076 1.17106 -1.0527
1 1 -4.91682 -3.78386 4.8099 0.0438884 0.565009 1.27957
4 1 -3.24481 -3.55234 5.42895 -1.0548 -1.25782 -0.110991
5 1 -3.51787 -4.24782 4.87221 -0.312137 1.51253 -0.258868
6 1 -3.36169 -4.72162 5.76098 0.600551 -1.22131 2.13467
11 1 0.229613 -3.67394 5.54923 0.482778 1.26627 -1.29083
18 1 2.70589 -4.78453 4.70518 0.806031 -0.341765 -0.982429
2 1 -4.70003 -3.18228 5.50017 1.22388 0.201632 -0.903824
13 1 1.26231 -2.32512 5.44156 -0.0947045 -1.02517 1.09013
83 1 -5.57692 3.14713 5.58982 -0.623171 1.15396 0.791702
74 1 -3.75133 2.21686 5.66627 0.377005 -0.53789 -0.442783
73 1 -3.04873 2.29521 5.04927 1.40847 -1.82963 0.797494
84 1 -5.33926 3.61292 4.84876 0.327913 0.783535 2.47014
10 1 -0.339708 -3.86455 6.28263 0.124779 -0.777718 1.07214
9 1 -1.11864 -4.49308 6.48329 -0.267135 0.115689 1.34367
3 1 -3.96561 -3.4687 6.04127 0.638289 -0.419528 -0.0850247
12 1 0.730384 -3.04997 6.03731 -1.34522 -0.821433 0.0795449
82 1 -6.30964 2.96698 6.18374 -2.47669 -0.713795 0.161256
81 1 -6.9034 2.26869 6.43675 0.157506 0.453967 1.0331
80 1 -6.3885 2.43239 7.23375 -0.0563939 0.898997 -0.660554
79 1 -5.60336 2.63828 6.81872 -0.41989 0.6489 -0.150251
75 1 -4.35742 2.85117 6.10934 -0.532196 -1.09384 -0.412848
76 1 -4.46235 3.58617 6.73793 0.011845 -0.0854167 -0.479865
78 1 -5.3333 3.31202 7.47519 0.762543 0.0403872 0.638606
77 1 -4.4139 3.48628 7.69387 0.255827 0.0882767 -0.179077
ITEM: TIMESTEP
10000
ITEM: NUMBER OF ATOMS
100
ITEM: BOX BOUNDS pp pp pp
-4.9281385000000000e+01 5.0718615000000000e+01
-5.1424891000000002e+01 4.8575108999999998e+01
-4.8996873000000001e+01 5.1003126999999999e+01
ITEM: ATOMS id type xu yu zu vx vy vz
96 1 -2.50871 -3.85507 2.45335 1.26341 -0.617384 -0.73522
97 1 -2.54401 -4.42224 1.65374 1.25814 0.40916 1.55305
95 1 -3.17858 -3.23334 2.20204 0.644439 0.388988 0.680624
98 1 -2.39272 -4.05445 0.792927 -0.942492 0.679313 0.418101
99 1 -2.12866 -3.67546 -0.0285762 -0.609542 0.383185 0.166048
3 1 -2.87899 -1.26749 1.95585 0.0596087 0.555453 0.0874766
93 1 -3.03632 -3.03855 0.965712 0.827097 -0.732538 -0.266608
92 1 -2.6532 -2.18983 1.04787 -0.105532 -0.543119 -0.31539
100 1 -3.07409 -3.85601 0.0652708 -0.495618 0.269598 -1.01828
4 1 -3.15547 -0.704442 2.69249 -0.774799 -1.12617 -0.605563
91 1 -1.73264 -2.35948 1.3289 1.19649 0.250142 -1.90524
90 1 -0.987838 -1.86059 1.77777 1.41694 0.556174 0.239632
9 1 -0.973641 -0.00421831 2.59896 -1.14234 0.325456 1.52866
94 1 -2.38182 -3.15199 1.60711 0.482488 -0.125692 -0.303263
75 1 -1.6632 -2.83673 3.60745 1.72156 -0.417238 -1.60345
82 1 -0.430718 -3.48204 0.0779834 -1.22816 0.76618 -0.650742
81 1 0.172817 -3.3018 0.834892 -0.252275 -1.09309 0.632226
83 1 -1.20529 -3.03073 0.463404 -0.609304 1.52943 -0.370689
80 1 -0.112326 -4.22674 1.00311 0.967219 1.03826 0.543301
2 1 -3.04127 -2.21831 2.23688 -0.19146 -0.981975 0.0400376
74 1 -2.06212 -2.74678 2.71645 -2.3108 -0.58145 0.665233
73 1 -1.38747 -2.94259 2.06582 -0.78136 0.595375 0.73564
84 1 -0.637668 -2.21016 0.335206 0.810733 0.259727 -0.0322644
85 1 -0.0179183 -1.64335 0.901349 -0.76493 0.822683 -0.71424
87 1 0.819926 -1.47052 1.86409 0.128901 0.88353 -0.466053
52 1 -3.21325 -1.82353 3.25595 1.45985 0.465285 0.278176
51 1 -3.73301 -1.59034 2.51251 -1.87705 -1.43037 -0.475791
5 1 -2.34571 -1.15183 3.01896 0.0459434 -0.210984 0.42032
6 1 -1.83863 -1.66532 2.39688 2.14517 1.3563 -0.171276
33 1 0.966221 -1.16291 3.57371 -1.1466 1.10484 0.915337
89 1 -0.99045 -1.10363 2.38896 0.89531 -0.594323 -1.45823
88 1 -0.105767 -1.1534 1.99918 -1.02318 0.362504 0.87903
14 1 -2.3399 -0.169923 3.54077 -2.12546 -0.810781 -0.407922
7 1 -1.77543 -0.959425 1.73994 -0.615608 -0.490632 0.161625
8 1 -1.79647 -0.435382 2.51511 0.566899 -1.10136 0.906766
11 1 -2.17869 1.19281 2.62169 0.584995 -0.126147 0.389163
44 1 0.372569 -0.69804 4.28976 -0.385422 -0.62856 0.663364
47 1 1.8106 -1.2347 5.517 -1.25659 -0.182374 0.153947
46 1 1.47874 -0.434004 5.04915 0.773722 -2.25299 0.151991
32 1 0.351109 -1.48144 2.97323 1.18224 1.07881 -1.20516
10 1 -1.74544 0.469128 2.98331 -1.11487 -0.857525 2.07686
45 1 0.961235 -0.0175744 4.41232 -0.288001 -0.629509 0.31598
76 1 -1.66248 -3.75881 3.40566 0.619809 1.80069 1.39031
78 1 -1.6691 -3.90535 1.7647 -1.64628 -0.723809 -1.5014
79 1 -0.723669 -3.78458 1.55651 -0.769834 -0.416188 -0.657797
77 1 -1.13241 -3.77051 2.56369 1.36089 0.231458 1.73986
1 1 -3.97165 -2.26728 1.76886 0.28965 -1.1397 -0.0140651
70 1 -0.688858 -2.93247 3.0978 0.0694372 0.398768 -0.712778
72 1 -0.394211 -2.70249 2.09639 -0.989731 0.32665 -0.49002
69 1 -0.79974 -2.27758 3.79639 0.680544 -0.0179799 -0.448775
71 1 -0.174061 -3.55606 2.55596 0.725705 0.209399 0.182738
35 1 0.727306 -1.22111 5.33506 -0.259744 0.776992 -0.610079
86 1 0.562113 -2.24094 1.40678 -0.777026 -1.31477 -0.562383
54 1 -2.36977 -3.31225 4.15465 -0.457466 2.19727 -0.148295
53 1 -2.7391 -2.68183 3.58507 -1.43322 1.13505 1.09279
68 1 -1.02308 -1.44845 3.41189 -1.61623 0.889482 1.8187
67 1 -0.90574 -1.14368 4.34458 -0.209336 -1.53615 1.82351
16 1 -2.77833 -0.538302 4.82861 1.14888 0.708822 -0.360318
31 1 -0.218376 -0.648933 2.96075 0.221395 -0.813517 0.666181
29 1 -1.37948 -0.338766 3.47744 -0.288901 1.27679 -0.725066
30 1 -0.51394 0.162091 3.50064 -1.41368 -0.648955 -0.953593
37 1 0.107562 -0.155965 5.3181 0.826452 -0.102093 -1.1734
36 1 0.422092 -0.67938 6.09768 0.211326 0.246432 2.36978
34 1 1.11752 -1.45924 4.49607 -1.00933 -0.305322 0.382307
15 1 -2.55273 -0.985696 3.96731 -0.474211 -0.426768 -0.0754582
12 1 -2.46071 0.989111 3.49602 0.28006 0.660825 0.313779
13 1 -2.99022 0.337144 3.94289 -0.346282 0.42909 0.251161
17 1 -2.80404 -1.13481 5.61559 1.13278 0.701112 -0.877113
43 1 -0.384532 -0.187955 4.38901 0.927975 0.152896 -0.214272
42 1 0.0559506 0.605415 4.21825 0.682186 0.893064 -1.55394
27 1 -1.99825 -0.0295804 5.24446 1.94678 0.25387 -0.349818
40 1 0.223194 1.94814 5.53252 -0.790214 -0.852954 -0.705897
39 1 -0.382533 1.15042 5.60068 -1.06184 -0.441126 0.267639
38 1 0.452873 0.759093 5.1806 -0.925158 -1.03283 1.09127
50 1 3.39155 0.816007 5.47956 -0.975132 -0.382952 0.410908
49 1 2.55646 0.33268 5.5129 -0.317667 0.669047 0.866689
41 1 0.140518 1.53001 4.64775 1.36405 1.11619 2.00402
48 1 2.08493 -0.464182 5.97455 -0.394776 0.642542 -0.830644
57 1 -1.61834 -2.53924 4.72906 -0.109233 -0.681498 -0.317343
58 1 -1.25757 -3.38157 4.32248 -0.259044 -1.126 -0.116502
60 1 0.0379195 -3.56752 3.93724 -0.234908 -1.92146 -0.797511
61 1 0.36087 -2.66349 3.95673 0.763305 0.0815641 -0.676759
55 1 -2.78438 -2.66108 4.66466 -0.653893 -0.0277869 -0.729528
56 1 -2.29609 -2.15243 5.31307 -0.546608 -0.697233 -0.455582
59 1 -0.389049 -3.38261 4.79318 1.76876 -1.3781 -0.0230422
66 1 -1.48768 -1.52353 5.00329 0.620601 -0.618744 -0.0556769
65 1 -1.02356 -1.8278 5.76035 1.51489 1.01238 -0.978112
62 1 0.0718159 -1.83038 4.37163 0.599637 -0.0117313 1.92197
63 1 -0.392722 -2.24825 5.07645 -1.11931 1.33068 -0.647088
18 1 -2.11917 -1.59613 6.06991 -1.15636 -0.761884 0.527281
28 1 -1.64067 -0.37434 4.41036 -0.381322 0.575651 0.839221
19 1 -1.77136 -0.743264 5.95049 0.287686 1.26886 0.850171
23 1 -1.08623 -0.453777 5.29708 0.15576 -0.0406336 -1.8223
26 1 -2.05053 0.848066 4.83309 1.02969 0.791518 0.130752
20 1 -1.24892 0.00782525 6.26523 2.2084 -0.755847 0.268965
25 1 -1.40801 0.803078 4.10615 0.0673648 0.380575 -0.204179
24 1 -1.05781 0.445429 4.94032 1.36829 0.916094 0.0532193
64 1 -0.970398 -2.7715 5.65367 0.748034 -0.846233 -2.00083
22 1 -0.391747 -1.09901 5.26403 0.327902 -0.595261 -0.444894
21 1 -0.698392 -0.725781 6.11301 -2.91505 -1.07581 0.699729
ITEM: TIMESTEP
20000
ITEM: NUMBER OF ATOMS
100
ITEM: BOX BOUNDS pp pp pp
-4.9281385000000000e+01 5.0718615000000000e+01
-5.1424891000000002e+01 4.8575108999999998e+01
-4.8996873000000001e+01 5.1003126999999999e+01
ITEM: ATOMS id type xu yu zu vx vy vz
22 1 -1.56547 -3.15727 2.10857 -0.326744 0.443858 0.659541
38 1 -0.569804 -1.25643 2.19925 -1.65874 0.370162 -1.0295
21 1 -0.861431 -2.63177 1.6585 -0.00574935 -1.00233 1.56859
36 1 -1.68926 -0.932436 1.08418 0.314154 -0.227686 1.59385
37 1 -1.24115 -0.670644 1.93233 -0.407946 0.0847355 -1.47323
12 1 -2.87921 -0.442667 2.18534 1.30118 0.92035 -1.79329
8 1 -4.25413 -1.27389 1.724 0.242835 0.352575 -0.0748901
25 1 -0.248438 -3.48451 3.01751 0.5177 1.88059 -0.857551
10 1 -3.97434 -1.17998 3.07458 0.489414 -0.432276 -0.488806
9 1 -4.7645 -1.34461 2.55157 -2.00467 1.11494 1.51263
19 1 -1.4446 -1.93065 2.38062 -0.660386 -1.28008 -0.315908
23 1 -2.03127 -3.88756 2.61729 0.181386 0.80721 -0.35668
24 1 -1.04761 -4.02387 2.86763 -1.45509 0.205046 -0.48655
40 1 -0.525555 -2.11323 2.7884 -0.55588 0.66431 0.634648
39 1 0.0620395 -1.90338 2.03908 -1.35592 -0.311014 0.0393621
11 1 -3.84801 -0.514552 2.46291 1.93881 -1.43045 0.170612
14 1 -1.94976 -0.154168 2.61929 -0.01998 0.321034 0.667556
20 1 -1.59017 -2.04774 1.43275 0.822307 0.236155 1.17194
34 1 -1.9329 -1.11866 2.74417 -0.666728 -0.899956 1.61232
35 1 -2.22601 -1.1894 1.809 0.236802 -0.889435 0.055519
13 1 -2.11252 -0.103829 1.59579 -0.680776 0.358136 0.247716
68 1 -1.30369 -0.0924671 4.62294 0.250845 -0.560775 0.0369838
67 1 -1.20963 0.378804 3.77668 1.96653 0.247544 0.177378
66 1 -0.805762 1.18697 4.26155 -0.588171 -1.84052 -1.36247
6 1 -3.57098 -2.28004 2.7094 -1.14837 0.0546378 -0.82691
7 1 -3.42054 -1.79883 1.82406 0.726059 0.0510143 1.00366
27 1 -0.995463 -3.47852 3.93733 -0.741819 -1.07354 0.80916
50 1 0.696089 -0.375033 6.30528 0.604014 0.652938 1.64314
48 1 1.28073 -1.10332 5.28641 0.541841 0.781032 -0.117674
17 1 -2.79892 -2.16704 3.49547 -0.358779 1.01023 -0.645804
18 1 -2.41074 -1.98314 2.59983 -0.165451 -0.203603 0.218288
16 1 -2.91421 -1.24186 3.22911 1.54215 -0.45745 0.937378
31 1 -1.53194 -2.6948 3.08312 1.12045 1.69449 -1.01576
26 1 -0.369037 -4.13209 3.63184 -2.20997 2.01831 1.13659
47 1 1.57146 -1.59031 4.4351 1.93157 1.25893 -0.104316
41 1 -0.481399 -2.52143 3.68121 0.563676 -1.51032 -1.29583
46 1 1.01073 -1.68374 3.66446 1.13999 -1.08802 0.523868
49 1 0.405018 -0.729345 5.43883 1.16501 1.70822 -0.985007
100 1 -3.81084 -3.89921 5.36679 -0.109006 -0.964109 -0.0740552
1 1 -2.93601 -1.23604 4.55846 -0.505891 0.571662 0.321414
15 1 -2.61774 -0.348013 3.29602 -0.788742 0.78973 -0.898783
55 1 -1.93412 -0.685078 3.94346 0.93184 0.573613 0.729122
32 1 -1.58462 -1.82497 3.44418 -0.628011 -0.807234 -0.0316981
33 1 -0.984079 -1.10371 3.13242 -2.31397 0.969514 -2.32485
45 1 0.418969 -1.23603 4.33402 0.112779 -2.50585 0.925119
70 1 -0.583662 -0.578387 3.86946 -0.169346 1.02536 0.628688
57 1 -2.67837 0.784025 4.97026 -1.41362 0.853393 0.896031
56 1 -2.53735 -0.0370733 4.34616 0.68227 -1.47643 1.28405
69 1 -0.306857 -0.280045 4.72871 -0.386709 0.55605 0.478489
73 1 -0.440053 -1.30731 5.86913 1.16398 -1.60236 -0.57047
74 1 -0.403921 -1.37931 6.94897 0.106935 -0.00737067 1.55202
65 1 -1.46661 1.83801 4.61585 0.590871 -0.118807 1.05582
64 1 -1.47735 0.907945 4.97321 -0.71297 -0.299378 0.678069
5 1 -3.90962 -2.60362 3.53035 -1.46702 -1.58224 -1.12339
28 1 -1.84277 -3.85359 3.87151 0.109568 -1.08516 -0.557219
3 1 -2.60579 -2.15826 4.61206 -1.33842 0.326315 -0.234672
87 1 -2.61225 -4.11302 4.94469 1.64916 -0.458773 -0.811581
4 1 -3.21923 -2.84698 4.26815 0.211184 1.45892 0.0957982
86 1 -2.12689 -3.34141 5.08495 1.00855 -1.27246 -0.288296
84 1 -1.41998 -2.54401 4.48879 -0.59811 1.23637 -1.69664
30 1 -2.37163 -2.98554 2.92495 0.98043 0.419351 -0.526441
29 1 -2.28465 -2.96128 3.93834 -0.160407 0.830268 0.0552299
42 1 0.410913 -2.87146 3.99962 0.152041 0.536961 -0.923813
43 1 -0.0699622 -2.98049 4.81904 -0.0902221 -0.130793 0.584919
97 1 -3.25975 -2.91613 5.25507 1.08268 0.931242 -1.84454
98 1 -4.21058 -2.62759 5.23959 -0.111405 1.4278 1.25563
99 1 -4.56348 -3.46896 5.01324 0.918386 -0.627247 -0.0403533
96 1 -3.36161 -2.55801 6.1282 1.03856 -0.479736 -0.811717
2 1 -3.40076 -1.89754 5.09421 2.40727 -0.231299 -0.697491
85 1 -1.15154 -3.30437 5.06919 0.113599 -0.169984 -0.0899132
54 1 -1.59822 -1.44915 4.44054 -1.20907 1.93111 -1.01897
53 1 -1.9964 -0.799908 4.96473 0.198922 -0.034357 1.32986
83 1 -0.795204 -2.22538 5.11887 -0.664731 -0.667929 0.396912
71 1 -0.540667 -1.51286 4.00896 0.557685 0.608396 -0.669168
44 1 0.242576 -2.08111 4.76059 1.37424 -0.927735 -1.5099
95 1 -2.38614 -2.38492 5.94772 -1.5944 -0.831991 0.544483
51 1 -3.27775 -0.731928 5.25257 1.1322 1.00633 -0.0771399
58 1 -3.04659 0.262078 5.67673 -0.686586 -0.132932 -0.30641
59 1 -2.15917 -0.00112437 5.6543 -1.35113 0.219402 1.04105
52 1 -2.54128 -1.2688 5.54002 -0.289903 0.108524 -0.447518
72 1 -0.558395 -1.20111 4.91667 1.07286 -0.631781 -0.976341
76 1 -0.31964 0.0725324 5.80716 0.714139 0.777407 -0.401527
61 1 -2.76395 1.51566 5.76355 -2.04911 0.568518 -0.505933
60 1 -2.09828 0.888805 6.06241 0.797387 -0.764982 -0.846455
63 1 -1.05927 1.33165 5.76085 0.111326 0.650581 -0.139411
75 1 -0.34562 -0.43879 6.63311 -0.905978 1.41119 -0.349373
77 1 -0.336137 0.827331 6.4274 0.464641 -1.47101 1.41028
62 1 -1.87484 1.80549 5.54855 1.01355 -0.996423 1.07432
89 1 -1.98393 -4.02428 5.8711 0.993874 0.82165 0.954506
88 1 -2.90732 -3.7368 5.83382 0.733556 -1.52667 -1.27595
93 1 -2.73428 -2.45379 6.97386 -1.76743 -0.192416 0.517463
91 1 -1.51682 -3.80649 7.11402 -1.26656 0.0446873 0.906829
90 1 -1.13957 -3.7333 6.22737 0.55953 -0.0448874 -0.372207
82 1 -1.37246 -2.55271 5.78108 -0.627212 0.128584 -0.66878
94 1 -2.46053 -1.63923 6.54699 -0.468349 -0.500623 1.85025
92 1 -2.00624 -3.03175 6.67275 0.311782 -1.1569 0.57798
80 1 -1.61036 -1.10292 6.19341 -0.823472 -0.346376 -1.34587
78 1 -1.17963 0.234423 6.30234 0.562124 -0.0543316 0.347771
79 1 -1.13042 -0.454103 5.64059 -0.808527 0.65508 0.868006
81 1 -1.65543 -1.70939 5.45057 -2.30975 -1.4385 0.503032
ITEM: TIMESTEP
30000
ITEM: NUMBER OF ATOMS
100
ITEM: BOX BOUNDS pp pp pp
-4.9281385000000000e+01 5.0718615000000000e+01
-5.1424891000000002e+01 4.8575108999999998e+01
-4.8996873000000001e+01 5.1003126999999999e+01
ITEM: ATOMS id type xu yu zu vx vy vz
61 1 -4.05435 -2.33585 3.57381 1.12013 -0.193772 -1.33399
59 1 -4.38008 -1.8801 2.59287 0.300916 2.18231 -0.410251
77 1 -1.80994 -0.0514766 3.87037 0.840219 0.363899 -0.445608
98 1 -3.6114 0.831579 3.98522 -0.682648 -0.627116 0.351728
99 1 -3.27168 0.310607 4.64134 1.41468 0.24876 0.981018
93 1 -1.39693 0.969373 4.42654 -0.393702 -0.0402674 0.824511
96 1 -2.80478 0.171524 3.37993 -0.659929 -2.33096 1.40594
95 1 -2.33878 0.955143 3.32789 0.594204 1.48919 1.69674
94 1 -2.34829 0.731804 4.30869 0.400357 -0.802737 1.61847
73 1 -2.0514 -2.18837 3.94397 -0.440752 1.82945 -0.802299
72 1 -1.4456 -2.89112 3.52934 -0.784501 1.19257 0.181111
64 1 -2.25379 -3.27232 4.91697 0.608125 -0.28451 -0.621705
60 1 -3.46572 -2.19386 2.87673 0.223631 0.171215 0.344928
62 1 -3.56761 -3.23644 3.7176 0.304283 0.359182 0.925513
74 1 -3.05818 -2.02844 3.84644 0.0667541 -1.10418 0.37108
75 1 -2.54962 -1.57398 3.19023 -0.388077 -0.94433 -0.216972
44 1 -0.0761517 -1.66301 3.56048 0.595957 1.68158 -0.697938
46 1 -0.429417 -2.82139 4.0966 0.694992 0.505298 0.530877
45 1 -0.0936863 -2.51867 3.26533 0.0282846 1.22461 0.461544
43 1 -1.02321 -1.66196 3.69686 0.481889 0.964161 -0.0819221
58 1 -4.74188 -1.20059 3.10376 0.120355 -2.1851 1.20344
56 1 -3.26269 -0.833878 2.74356 0.363502 -1.02755 -0.649616
76 1 -2.07949 -0.792721 3.40285 -0.572331 -0.212024 -0.483171
55 1 -3.01468 -0.774819 3.73253 -0.580681 -0.237309 -1.67817
54 1 -2.68785 -1.34141 4.4189 1.50937 -0.946044 -1.24475
78 1 -1.30886 0.0466437 3.05468 -0.963121 -0.263586 -0.322245
81 1 -1.17602 0.0260201 4.787 1.25573 1.24471 1.48826
79 1 -0.560174 0.508356 3.54142 -0.160063 -1.19302 -0.309576
53 1 -2.41753 -0.460053 4.66078 0.67888 -1.22129 -0.337621
57 1 -3.8616 -1.32718 3.43083 0.285622 2.09522 0.394791
92 1 -0.686416 0.862159 5.16592 -0.703319 1.116 1.37049
100 1 -3.80121 -0.412936 4.42152 -0.333768 -0.990332 1.131
97 1 -3.40084 0.868703 3.06715 -0.00799591 -1.87349 1.56843
89 1 -2.41725 1.5687 5.27182 0.412488 -1.57494 -0.4849
91 1 -1.40648 1.32752 5.6362 0.283461 1.80895 -0.530945
90 1 -1.89233 2.19615 5.75101 0.116794 -0.477208 -0.277406
66 1 -3.1416 -4.35993 4.63805 0.726356 0.818262 -0.358223
71 1 -1.42979 -2.67008 4.48801 -1.08768 -0.0588181 0.365383
68 1 -1.47692 -3.75824 4.41049 -1.82781 -0.714186 -1.16902
70 1 -1.48993 -2.79376 5.41931 0.726505 -0.70189 -1.45594
3 1 -3.94169 -1.56422 4.55473 -0.337575 -0.536234 -0.695287
2 1 -4.39302 -1.05241 5.2819 -0.44557 -0.753627 0.780658
63 1 -3.0514 -2.91416 4.50579 -2.02437 -1.98129 1.04565
6 1 -3.97681 -3.3839 5.65018 1.50634 0.198506 0.6106
4 1 -3.95702 -2.38471 4.97451 -1.12512 0.120688 1.06137
38 1 -3.0113 -2.06713 5.19632 0.424341 0.928654 -0.547901
65 1 -3.02121 -3.66511 5.3667 0.409169 -1.73309 -0.411679
37 1 -2.3198 -2.31893 5.87329 0.603234 -0.0494577 -1.12415
47 1 0.485293 -2.83893 4.41659 -0.325946 -0.881935 0.549072
69 1 -0.945147 -3.56548 5.19833 0.654031 1.65431 1.23768
42 1 -1.3701 -1.09223 4.4487 1.97419 0.43456 0.340029
48 1 0.312184 -2.51423 5.30979 0.336086 0.323914 -0.907623
1 1 -4.07288 -0.596007 6.05974 2.07725 -0.602039 -0.159744
51 1 -3.54877 -1.39258 5.86233 -2.51403 -2.08953 0.455848
27 1 -2.54407 -1.83841 6.7369 -0.682217 -0.882637 -1.40356
28 1 -2.43116 -1.20029 6.01358 -0.328574 1.30421 1.11175
39 1 -2.03642 -1.82859 4.99636 -0.302501 1.10215 -0.644092
29 1 -1.82972 -0.833897 5.38015 -0.888971 0.964404 -1.38247
82 1 -1.92766 0.408026 5.30934 0.944205 -0.340851 -1.06181
41 1 -0.554001 -1.24149 4.9266 0.791786 1.75666 1.42213
40 1 -1.20312 -1.77717 5.42498 -0.759336 0.430819 0.143737
35 1 -1.72413 -2.9738 6.49757 -0.679306 1.59511 0.294291
52 1 -3.27694 -0.658328 5.28976 -1.38981 2.36039 0.747183
85 1 -3.18673 0.167769 5.98079 2.01247 -0.248235 -0.225224
86 1 -4.02433 0.715108 6.07045 0.807907 -0.785393 -0.437547
80 1 -0.691359 -0.292346 4.11306 -2.1944 0.00343878 -1.19498
84 1 -2.32432 0.026966 6.16844 -0.48062 -1.43944 0.0553196
83 1 -1.38433 0.0882041 6.0246 -0.432014 -0.851152 0.888118
87 1 -3.4437 1.08994 5.35403 0.407936 -0.158625 0.321816
88 1 -2.79126 1.17084 6.10069 -0.454497 -0.797589 1.28109
67 1 -2.24495 -4.42876 4.65022 -1.49561 0.786895 -0.776606
10 1 -2.4734 -4.50701 5.6447 0.605745 1.74168 -0.386571
19 1 -4.37212 -1.35673 6.72323 -1.49918 0.0809025 0.271516
5 1 -3.45944 -2.60478 5.78838 -2.02112 0.010128 -1.31564
7 1 -4.18481 -4.30767 5.4287 0.36974 -0.361938 -1.03071
8 1 -3.57809 -5.10216 5.22022 0.416994 -0.593979 -0.337596
36 1 -2.65258 -3.15801 6.23192 1.89028 0.831741 -0.69717
9 1 -3.37713 -4.58436 6.05091 -1.05138 0.144052 -0.981112
11 1 -1.9209 -3.73147 5.70858 -0.740526 1.64124 -0.118922
12 1 -1.30137 -4.34468 6.11829 0.759994 -0.423608 -0.061553
49 1 0.659915 -3.10083 6.02025 -1.25697 -0.529256 1.73658
23 1 -2.23697 -0.823041 7.62418 0.988161 1.08782 -0.150982
26 1 -1.65422 -1.98488 6.50325 -0.605862 0.250765 0.0245159
18 1 -4.51394 -1.88082 5.90177 0.416967 1.39291 0.40097
17 1 -4.2943 -2.57847 6.50821 -0.138144 0.107656 1.91001
31 1 -0.173423 -0.55575 6.15988 -0.466692 -1.60917 -1.06022
15 1 -2.93572 -2.72644 7.16655 0.977764 -1.37938 0.612457
16 1 -3.66292 -3.23167 6.79801 -2.08 2.12 -0.971531
34 1 -0.78436 -3.16396 6.3208 0.0989941 0.457856 -0.677124
32 1 -0.0632187 -1.45097 5.94319 -0.562298 -2.47509 0.299028
33 1 -0.454405 -2.31023 6.078 -0.251657 0.709889 -0.41862
50 1 0.266373 -3.46931 6.87228 -1.46129 1.25476 -0.552101
25 1 -1.6286 -2.21723 7.4522 1.29597 0.121552 2.30963
24 1 -1.87583 -1.55065 8.12592 0.74514 -0.907018 -0.4831
30 1 -1.05127 -0.886409 5.89051 -0.57329 -0.320259 1.24013
20 1 -3.81697 -1.91109 7.19804 0.402505 -0.26141 -0.149884
13 1 -1.65012 -3.98001 6.93267 -0.447398 -1.26889 0.547532
22 1 -2.8305 -0.740008 6.85795 1.08821 -1.30906 -0.0614305
21 1 -3.62677 -0.95827 7.39621 0.24602 0.441343 -2.0117
14 1 -2.60346 -3.59192 7.12319 0.924497 -0.157841 -0.829226
ITEM: TIMESTEP
40000
ITEM: NUMBER OF ATOMS
100
ITEM: BOX BOUNDS pp pp pp
-4.9281385000000000e+01 5.0718615000000000e+01
-5.1424891000000002e+01 4.8575108999999998e+01
-4.8996873000000001e+01 5.1003126999999999e+01
ITEM: ATOMS id type xu yu zu vx vy vz
26 1 -2.94311 -1.73563 2.91435 0.101074 0.674053 1.26999
94 1 -4.33151 -2.86543 3.49341 0.263334 -1.8665 -1.23826
90 1 -1.8926 -3.25971 4.22931 -1.04983 -0.0954392 1.13854
91 1 -2.60073 -2.49487 4.09573 0.200237 3.19613 -0.819721
89 1 -2.06198 -2.61124 4.90019 -0.0706821 0.138311 1.37724
95 1 -3.44322 -2.766 3.15103 0.257053 1.20165 1.09998
5 1 -3.80966 -1.74593 5.61096 1.32716 -0.655879 -1.62358
27 1 -2.4922 -1.4233 3.73439 -1.28967 -0.844101 -0.780771
25 1 -3.84657 -1.85308 2.64803 -0.0450667 -0.389748 0.239643
6 1 -4.18541 -1.3036 4.7804 -1.62816 0.408782 -0.271567
7 1 -4.22051 -0.557369 5.39659 -0.181416 -0.625407 -0.369396
8 1 -4.54596 0.285554 5.10564 1.21139 1.30933 -0.277759
28 1 -1.70917 -1.61484 4.19776 1.12182 0.729789 -0.154389
35 1 -2.78068 -1.75398 5.20037 0.900618 1.5577 1.58607
24 1 -3.55103 -0.927535 2.49038 2.11456 0.568689 0.598012
23 1 -3.47907 -0.974314 3.48756 -1.23603 0.913358 1.09899
33 1 -1.28512 -0.839874 4.94968 -0.140802 0.551871 -2.03821
11 1 -3.60591 0.789325 3.57975 0.582349 -1.21282 0.235955
12 1 -2.74098 1.13867 4.00094 2.35463 0.969714 1.81925
13 1 -2.66346 1.36579 4.95049 0.727681 0.768376 -1.57031
21 1 -2.37028 -0.622521 4.70515 -0.525307 -0.656633 0.984815
19 1 -3.02591 0.283728 4.98789 -0.629409 0.379678 0.25359
20 1 -2.91014 -0.00307627 4.10355 0.280589 -0.957899 1.55937
22 1 -3.20342 -1.00639 4.49777 0.831864 -1.76972 -1.21817
14 1 -2.95354 2.23612 5.04086 -2.05935 -1.11695 1.48314
93 1 -3.75944 -3.14776 4.25477 -0.670141 1.66969 1.30735
100 1 -4.50785 -0.932404 3.82902 -0.36105 -0.217539 -1.98541
92 1 -2.87726 -3.39508 4.55394 -0.879411 0.589492 -0.810605
96 1 -3.67476 -2.10262 3.83338 -0.05781 1.61573 -0.344499
99 1 -4.69828 -1.91124 3.75387 -0.912979 0.232624 0.591755
4 1 -4.72389 -1.70658 5.7322 0.324469 0.776729 -1.47481
3 1 -4.34427 -1.6256 6.58723 -0.381927 1.64229 0.332048
88 1 -1.31709 -2.97461 5.3469 0.29363 0.059564 -0.240182
30 1 -0.110519 -2.27818 4.06052 0.097976 0.760998 0.240382
29 1 -1.04069 -2.28619 4.31385 -0.467957 0.230388 0.917435
87 1 -2.14608 -3.46838 5.55942 -0.6212 -0.919995 -1.14977
97 1 -3.55191 -2.25682 4.78887 0.0772941 0.949307 0.632896
1 1 -3.89007 -1.41965 8.31041 2.08197 -0.0481543 0.498479
98 1 -4.49831 -2.30565 4.59018 0.764929 -0.103194 1.42833
2 1 -4.33681 -1.4684 7.49177 0.161182 -1.19997 -0.330729
36 1 -3.09308 -0.943645 5.68248 -0.162607 0.206093 -1.72316
34 1 -1.87917 -1.43783 5.37678 0.835109 0.294416 1.4489
31 1 -0.217777 -1.96957 4.89099 -0.307034 -1.63254 -2.13707
32 1 -0.531526 -1.174 4.41225 0.1786 -0.0232856 0.564445
49 1 -2.32377 0.344112 7.27563 0.92359 1.64772 -1.33306
15 1 -2.71649 1.99079 5.95082 -0.439675 -1.9629 -0.42019
10 1 -3.97234 1.16979 4.44324 -0.675141 -1.88223 -0.0184243
9 1 -3.9222 0.166802 4.37132 -0.992041 0.475045 -0.417319
18 1 -3.59535 0.189266 5.71276 -0.951303 -1.03903 0.215733
48 1 -2.65955 1.17115 6.85351 -0.444457 0.195558 1.05129
50 1 -2.71098 0.0311197 6.49562 -0.704029 0.91632 0.989183
16 1 -3.61295 1.84696 5.7023 -0.139775 -0.90431 0.358903
17 1 -3.93718 1.00341 6.06568 -0.220812 -0.491695 0.557169
58 1 -4.07651 -3.29672 5.368 0.398224 -1.42679 0.978094
57 1 -3.41752 -3.99139 5.30258 -1.27425 1.31395 0.19435
56 1 -2.95131 -3.82999 6.12366 -0.405546 -0.444242 -0.3439
64 1 -5.01653 -2.67437 7.18665 -0.984651 -1.13102 -0.226896
63 1 -4.59039 -2.48915 8.02302 -1.47297 1.55363 0.164586
59 1 -3.21074 -2.90317 5.53154 -1.22433 0.364285 -0.438874
60 1 -2.66081 -2.34492 6.1052 0.532415 -0.087627 1.24031
61 1 -3.34586 -2.03693 6.65418 0.230804 0.578473 -0.554475
55 1 -3.06395 -3.08124 6.75843 -1.27229 -0.6506 0.915857
85 1 -1.99708 -3.86648 6.90118 1.32362 1.18695 0.906253
86 1 -1.77405 -3.11515 6.36536 0.749146 0.178128 -1.59239
52 1 -2.52586 -0.613587 7.87168 1.54398 -0.243832 1.84473
40 1 -1.49078 -1.65935 7.21173 2.89305 -0.0583029 -1.14805
42 1 -0.9599 -1.58547 5.64652 1.87162 -0.77848 -0.644177
41 1 -1.4601 -1.95722 6.31593 -0.739666 1.13104 -0.764119
43 1 -1.24318 -0.961005 6.36584 -0.572791 -0.232819 -0.199112
37 1 -3.13738 -0.977201 6.68766 -0.41311 0.366656 0.726372
38 1 -2.26044 -1.07914 6.39793 0.0827804 1.04352 -0.829732
51 1 -3.45219 -0.792894 7.74824 -1.88561 -0.419134 0.914967
47 1 -2.43638 0.892728 5.97935 0.724121 0.249119 -0.122836
39 1 -1.82036 -0.702562 7.21336 0.797915 1.45491 0.560618
44 1 -1.54785 -0.0866687 6.20651 -0.0239149 -0.179792 0.447999
45 1 -2.25053 -0.2992 5.64745 -0.718918 -2.53605 -0.0216637
46 1 -2.01532 0.503572 5.26565 -0.547945 -2.04684 1.69743
66 1 -4.84827 -3.82011 7.24385 0.00327717 1.33829 -0.994742
65 1 -4.36908 -3.19214 6.65167 -0.464131 -0.91883 -0.0185393
62 1 -3.96069 -2.47321 7.2465 -0.460045 -2.01041 -2.24122
54 1 -2.42423 -2.38268 7.05465 0.849743 -1.09462 -0.027325
84 1 -1.25266 -3.61353 7.43276 0.147295 -0.329914 -2.19516
83 1 -1.34023 -2.70235 7.33099 0.882904 0.660424 -0.427743
82 1 -2.03289 -3.15583 7.96315 0.661194 1.32872 -2.01133
67 1 -4.11026 -3.64944 7.84622 0.487705 -0.753762 0.90917
68 1 -4.87346 -3.66126 8.50451 -0.557691 0.383473 -0.211124
53 1 -2.64487 -1.49916 7.42369 -0.394197 -0.20776 0.315171
69 1 -4.31613 -4.43436 8.73738 -0.129941 -0.604955 0.191848
70 1 -3.53596 -4.41511 8.16314 0.655585 -1.4183 -0.342462
81 1 -2.02969 -2.20909 8.1324 -0.541171 -0.493994 1.46379
80 1 -1.98857 -2.03548 9.12401 -0.110139 1.04662 0.839575
79 1 -2.07388 -2.71806 9.87386 -0.529326 -0.951482 0.605743
75 1 -3.11452 -2.36555 8.2135 0.41407 -0.992969 -0.855369