LAMMPS (23 Jun 2022 - Update 1)
OMP_NUM_THREADS environment is not set. Defaulting to 1 thread. (src/comm.cpp:98)
  using 1 OpenMP thread(s) per MPI task


variable        runtime equal 1000000
variable		subsample_rate equal 1000

variable		outputfile_created string '3_created.data'
variable		outputfile_relaxed string '5_relaxed.data'
variable		outputfile_selfasb string '6_a_self_assemble.lammpstrj'
variable		outputfile_trajlin string '6_b_trajlin.data'
variable		outputfile_assembled string '7_assembled.data'

units           lj
atom_style      full
dimension       3
boundary        p p p
timestep        0.005

read_data       ${outputfile_created}
read_data       3_created.data
Reading data file ...
  orthogonal box = (0 0 0) to (35 35 35)
  1 by 1 by 1 MPI processor grid
  reading atoms ...
  100 atoms
  reading velocities ...
  100 velocities
  scanning bonds ...
  1 = max bonds/atom
  reading bonds ...
  99 bonds
Finding 1-2 1-3 1-4 neighbors ...
  special bond factors lj:    0        0        0       
  special bond factors coul:  0        0        0       
     2 = max # of 1-2 neighbors
     2 = max # of 1-3 neighbors
     4 = max # of 1-4 neighbors
     6 = max # of special neighbors
  special bonds CPU = 0.000 seconds
  read_data CPU = 0.006 seconds

bond_style      fene
bond_coeff      * 30.0 1.5 1.0 1.0
special_bonds   fene
Finding 1-2 1-3 1-4 neighbors ...
  special bond factors lj:    0        1        1       
  special bond factors coul:  0        1        1       
     2 = max # of 1-2 neighbors
     6 = max # of special neighbors
  special bonds CPU = 0.000 seconds

variable        Temp equal 1.0
variable        velSeed equal 926458

velocity        all create ${Temp} ${velSeed}
velocity        all create 1 ${velSeed}
velocity        all create 1 926458

### Output
thermo_style    custom step temp density press etotal pe ke epair spcpu
thermo          1000

###########################################################################
# Soft relaxation (to remove overlaps of particles)
######################################################################

pair_style      soft 1.0
pair_coeff      * * 0.0
variable        prefactor equal ramp(0,300)
fix             rampSoft all adapt 1 pair soft a * * v_prefactor

minimize        0.0 1.0e-8 1000 100000
WARNING: Using 'neigh_modify every 1 delay 0 check yes' setting during minimization (src/min.cpp:187)
Generated 0 of 6 mixed pair_coeff terms from geometric mixing rule
Neighbor list info ...
  update every 1 steps, delay 0 steps, check yes
  max neighbors/atom: 2000, page size: 100000
  master list distance cutoff = 1.3
  ghost atom cutoff = 1.3
  binsize = 0.65, bins = 54 54 54
  1 neighbor lists, perpetual/occasional/extra = 1 0 0
  (1) pair soft, perpetual
      attributes: half, newton on
      pair build: half/bin/newton
      stencil: half/bin/3d
      bin: standard
WARNING: Communication cutoff 1.3 is shorter than a bond length based estimate of 1.7550000000000001. This may lead to errors. (src/comm.cpp:727)
Per MPI rank memory allocation (min/avg/max) = 8.346 | 8.346 | 8.346 Mbytes
   Step          Temp         Density         Press          TotEng         PotEng         KinEng         E_pair         S/CPU     
         0   1              0.0023323615  -0.0039617958   21.524174      20.039174      1.485          0              0            
       362   1              0.0023323615   0.0023090379   21.485548      20.000548      1.485          0              66175.856    
Loop time of 0.00547268 on 1 procs for 362 steps with 100 atoms

94.6% CPU use with 1 MPI tasks x 1 OpenMP threads

Minimization stats:
  Stopping criterion = force tolerance
  Energy initial, next-to-last, final = 
      20.0391741078675   20.0005480767337   20.0005480767337
  Force two-norm initial, final = 11.878422 7.9509778e-09
  Force max component initial, final = 6.6117807 1.3572772e-09
  Final line search alpha, max atom move = 1 1.3572772e-09
  Iterations, force evaluations = 362 738

MPI task timing breakdown:
Section |  min time  |  avg time  |  max time  |%varavg| %total
---------------------------------------------------------------
Pair    | 0.00021515 | 0.00021515 | 0.00021515 |   0.0 |  3.93
Bond    | 0.0023524  | 0.0023524  | 0.0023524  |   0.0 | 42.99
Neigh   | 0.0017287  | 0.0017287  | 0.0017287  |   0.0 | 31.59
Comm    | 0.00018488 | 0.00018488 | 0.00018488 |   0.0 |  3.38
Output  | 0          | 0          | 0          |   0.0 |  0.00
Modify  | 0          | 0          | 0          |   0.0 |  0.00
Other   |            | 0.0009915  |            |       | 18.12

Nlocal:            100 ave         100 max         100 min
Histogram: 1 0 0 0 0 0 0 0 0 0
Nghost:             20 ave          20 max          20 min
Histogram: 1 0 0 0 0 0 0 0 0 0
Neighs:              0 ave           0 max           0 min
Histogram: 1 0 0 0 0 0 0 0 0 0

Total # of neighbors = 0
Ave neighs/atom = 0
Ave special neighs/atom = 1.98
Neighbor list builds = 17
Dangerous builds = 0

fix             nvtSoft all nvt temp ${Temp} ${Temp} 0.5
fix             nvtSoft all nvt temp 1 ${Temp} 0.5
fix             nvtSoft all nvt temp 1 1 0.5
run             100000
Generated 0 of 6 mixed pair_coeff terms from geometric mixing rule
WARNING: Communication cutoff 1.3 is shorter than a bond length based estimate of 1.7550000000000001. This may lead to errors. (src/comm.cpp:727)
Per MPI rank memory allocation (min/avg/max) = 7.221 | 7.221 | 7.221 Mbytes
   Step          Temp         Density         Press          TotEng         PotEng         KinEng         E_pair         S/CPU     
       362   1              0.0023323615   0.0023090379   21.485548      20.000548      1.485          0              0            
      1000   0.90989032     0.0023323615  -0.0021940042   21.776974      20.425787      1.3511871      0.00036425437  77550.757    
      2000   0.86546688     0.0023323615   0.0034714157   21.677128      20.39191       1.2852183      0.0025814786   77091.522    
      3000   0.98199538     0.0023323615   0.0028144228   21.866132      20.407869      1.4582631      0.0011756043   73810.521    
      4000   1.004495       0.0023323615  -0.0014058211   21.945624      20.453949      1.4916751      0.011986179    74215.545    
      5000   1.1222705      0.0023323615   0.0044495116   21.986385      20.319813      1.6665718      0.0050317639   74559.984    
      6000   1.0538243      0.0023323615   0.0023957538   21.985713      20.420784      1.564929       0.012100514    75374.263    
      7000   1.0210598      0.0023323615  -0.00038820026  21.904665      20.388391      1.5162738      0              76877.347    
      8000   0.94819751     0.0023323615   0.0024943091   21.747889      20.339816      1.4080733      0              76767.133    
      9000   0.92364502     0.0023323615   0.0020053029   21.724166      20.352554      1.3716129      1.7780894e-05  76006.89     
     10000   0.86685188     0.0023323615   0.00078277366  21.644879      20.357604      1.287275       0.0098636418   76373.225    
     11000   1.0057103      0.0023323615   0.00010113276  21.8558        20.362321      1.4934798      0.020705341    76087.195    
     12000   0.97901664     0.0023323615  -0.0026996968   21.871206      20.417366      1.4538397      0.0052928539   75925.428    
     13000   0.97718436     0.0023323615  -6.1641422e-06  21.963706      20.512587      1.4511188      0.025022446    75452.377    
     14000   1.0530014      0.0023323615  -0.0009993112   21.947994      20.384287      1.5637071      0.0020860456   74806.362    
     15000   0.99094527     0.0023323615   0.0011068478   21.895146      20.423592      1.4715537      0.0015091113   75553.182    
     16000   0.91285091     0.0023323615  -0.00025424173  21.87524       20.519657      1.3555836      0.0047853639   75323.921    
     17000   0.82806978     0.0023323615  -0.00054698156  21.701984      20.472301      1.2296836      0              75501.751    
     18000   1.043278       0.0023323615  -6.6143919e-05  22.003299      20.454031      1.5492679      0.0034319132   76269.233    
     19000   1.0879249      0.0023323615  -0.0017804642   21.998985      20.383416      1.6155685      0.015376175    74820.942    
     20000   1.1144506      0.0023323615   0.0025198298   22.190904      20.535944      1.6549592      0              75835.088    
     21000   1.0427751      0.0023323615   0.0011345349   22.099492      20.550971      1.548521       0.00040047813  76186.68     
     22000   1.0586695      0.0023323615   0.0017882747   22.05673       20.484606      1.5721242      0              73374.328    
     23000   1.0058426      0.0023323615  -0.0055245362   21.954628      20.460951      1.4936763      0.0027619031   74930.474    
     24000   0.98273442     0.0023323615   0.0015147357   21.862067      20.402707      1.4593606      0              75519.455    
     25000   0.95835343     0.0023323615   0.0017808774   21.937761      20.514606      1.4231548      0.00020839942  75421.533    
     26000   0.93993778     0.0023323615  -0.0021777292   21.884849      20.489042      1.3958076      0.0088889834   75704.926    
     27000   0.9308188      0.0023323615  -0.00011239942  21.842252      20.459986      1.3822659      0.021612409    74764.617    
     28000   1.0149581      0.0023323615   0.0041996387   21.906846      20.399633      1.5072129      0.0064059022   75642.279    
     29000   0.92841138     0.0023323615  -2.5398808e-05  21.987185      20.608494      1.3786909      0.0046112484   75628.063    
     30000   1.021043       0.0023323615   0.001589158    22.097958      20.581709      1.5162489      0.016799508    73461.649    
     31000   1.0465985      0.0023323615  -0.0021744286   22.037917      20.483718      1.5541987      0.0057879149   75557.075    
     32000   0.98907108     0.0023323615  -0.0015558606   22.044089      20.575318      1.4687705      0.009448173    75421.988    
     33000   1.0918536      0.0023323615  -0.0025643847   22.039275      20.417873      1.6214025      0              74429.888    
     34000   0.99801543     0.0023323615   0.0016279766   21.932339      20.450286      1.4820529      0.017384617    77031.484    
     35000   1.0352271      0.0023323615  -0.0052971711   22.076004      20.538692      1.5373122      0.00010473809  75482.625    
     36000   1.1141579      0.0023323615  -0.00093279925  22.222491      20.567966      1.6545245      0.00033678641  76487.873    
     37000   1.0369415      0.0023323615   0.00013065175  22.217841      20.677983      1.5398581      0.013788831    75782.871    
     38000   1.0515596      0.0023323615   0.0021717558   22.070766      20.5092        1.561566       0.0067894678   73164.568    
     39000   1.0238495      0.0023323615   0.00026414509  22.040141      20.519725      1.5204165      0.00044464649  74726.944    
     40000   1.0749111      0.0023323615  -0.0026849368   22.039327      20.443084      1.596243       0.012651334    73501.092    
     41000   0.99070886     0.0023323615  -0.0030385564   22.03241       20.561207      1.4712027      0.00092855646  77027.443    
     42000   0.95315224     0.0023323615   0.0019788197   21.965263      20.549832      1.4154311      0.020233689    75481.417    
     43000   1.0644183      0.0023323615  -0.0011168725   22.287172      20.706511      1.5806611      0.039694129    75395.728    
     44000   1.0253747      0.0023323615  -0.006676522    22.066233      20.543552      1.5226814      0              74593.032    
     45000   0.94179556     0.0023323615  -0.0047206018   21.970644      20.572077      1.3985664      0.019869988    75135.669    
     46000   1.0083495      0.0023323615  -0.0017646918   21.972114      20.474715      1.497399       0.00026040605  75390.549    
     47000   0.98767959     0.0023323615  -0.00080218158  22.091674      20.62497       1.4667042      0.024266258    74898.759    
     48000   1.1473449      0.0023323615  -0.0025885687   22.080512      20.376705      1.7038072      0.00065962995  75131.655    
     49000   1.0679312      0.0023323615   0.0017688272   21.970482      20.384604      1.5858779      0.014142422    76298.73     
     50000   0.9581935      0.0023323615   0.0014398836   21.955202      20.532284      1.4229173      0.0055011948   75614.658    
     51000   1.0215759      0.0023323615  -0.00093292688  21.934681      20.41764       1.5170402      0              75360.546    
     52000   0.98079591     0.0023323615   0.0040701936   21.977374      20.520892      1.4564819      0.0020862422   76128.048    
     53000   1.0090927      0.0023323615   0.0013324753   22.095438      20.596935      1.4985027      0              75429.913    
     54000   0.97519627     0.0023323615   0.0013260734   22.070151      20.621984      1.4481665      0.026885444    76703.004    
     55000   1.1805087      0.0023323615  -0.001586238    22.424088      20.671033      1.7530554      0.024690954    76238.473    
     56000   0.98387121     0.0023323615   0.0037155145   22.104425      20.643376      1.4610487      0.01435493     75889.232    
     57000   1.0723812      0.0023323615  -0.0037916262   22.122726      20.53024       1.592486       0.013635549    76275.876    
     58000   1.0152349      0.0023323615   0.00021908047  22.082827      20.575203      1.5076238      0.00077375639  76106.808    
     59000   1.1424502      0.0023323615  -0.0052108657   22.30072       20.604182      1.6965385      0.013308184    76840.592    
     60000   1.0359703      0.0023323615  -0.00097887545  22.188218      20.649802      1.538416       0.00011346294  75361.965    
     61000   1.1646839      0.0023323615  -0.002085017    22.239945      20.51039       1.7295556      0.012918477    77409.231    
     62000   1.101836       0.0023323615   0.0010338878   22.171386      20.53516       1.6362265      0.001396566    76153.609    
     63000   0.96616435     0.0023323615   0.00097550571  21.903821      20.469067      1.4347541      0.013027663    77513.347    
     64000   1.0068907      0.0023323615  -0.0020278726   22.061652      20.566419      1.4952327      0.013750276    75957.73     
     65000   0.98723233     0.0023323615   0.0022441476   22.031073      20.565033      1.46604        0.0066686189   76440.485    
     66000   1.0273881      0.0023323615  -0.0003515278   22.183579      20.657908      1.5256713      0              74626.604    
     67000   0.96528212     0.0023323615  -0.00014822656  21.9396        20.506156      1.4334439      0.010365557    76618.342    
     68000   1.069702       0.0023323615   9.4754668e-05  22.081119      20.492611      1.5885075      0.00049153926  73787.113    
     69000   1.1229502      0.0023323615   0.0011504079   22.200329      20.532748      1.6675811      0.0068454249   76472.869    
     70000   1.0062775      0.0023323615  -0.00085311964  22.094021      20.599699      1.4943221      0.013222355    75097.576    
     71000   1.0906935      0.0023323615   0.00015260357  22.145362      20.525682      1.6196798      0.018338513    75832.035    
     72000   1.010401       0.0023323615  -6.0487182e-06  22.154105      20.653659      1.5004455      0.0013793953   74886.79     
     73000   1.1177599      0.0023323615  -0.0034084797   22.254435      20.594562      1.6598735      0.00011231735  77412.892    
     74000   0.9768019      0.0023323615   0.00016143893  22.07312       20.622569      1.4505508      0.0084515956   75490.557    
     75000   1.1360996      0.0023323615   0.002159116    22.161595      20.474487      1.6871079      0.0089909162   76084.468    
     76000   0.97379329     0.0023323615  -0.00068458621  21.988928      20.542845      1.446083       0              75165.324    
     77000   0.94876793     0.0023323615  -0.0016073976   21.923496      20.514575      1.4089204      0.017745108    73435.274    
     78000   0.83947996     0.0023323615  -0.00062768559  21.726727      20.480099      1.2466277      0.0054510099   76152.675    
     79000   1.0090614      0.0023323615  -0.00080262643  22.068192      20.569736      1.4984562      0.00023011166  76814.337    
     80000   1.1217643      0.0023323615  -0.0038177864   22.367902      20.702082      1.66582        0.032902439    76038.272    
     81000   1.0240158      0.0023323615   0.00023547123  22.031597      20.510933      1.5206635      0.0068767308   75633.394    
     82000   1.003236       0.0023323615  -0.0022802982   21.894199      20.404393      1.4898055      0.019136282    74776.323    
     83000   1.0554159      0.0023323615   0.004011718    22.104562      20.537269      1.5672927      0.0080869707   74577.817    
     84000   0.83527346     0.0023323615  -0.0034122221   21.874648      20.634267      1.2403811      0.0030083664   75788.506    
     85000   1.036002       0.0023323615   0.0013573923   21.962923      20.42446       1.5384629      0.015709144    76432.293    
     86000   0.9432002      0.0023323615  -0.0032183248   21.913588      20.512936      1.4006523      0.013730309    76246.216    
     87000   0.95566008     0.0023323615  -0.00049614223  21.91653       20.497375      1.4191552      0.0035862035   75357.133    
     88000   0.93373351     0.0023323615  -0.00097093893  21.870485      20.483891      1.3865943      0.0018212145   75093.73     
     89000   0.9684944      0.0023323615  -0.00047342045  21.973429      20.535215      1.4382142      0.00087524744  75345.584    
     90000   0.98293324     0.0023323615  -0.0032204602   22.050919      20.591263      1.4596559      0.015353933    76718.81     
     91000   1.0832827      0.0023323615   0.0048517083   22.11977       20.511095      1.6086749      0.0052867789   77540.929    
     92000   0.85899662     0.0023323615  -0.0013049519   21.765697      20.490087      1.27561        0.0024124001   76494.385    
     93000   0.96176266     0.0023323615  -4.4223672e-05  21.874222      20.446004      1.4282176      0.0045653365   77267.691    
     94000   0.96019503     0.0023323615   0.00024459347  21.944954      20.519064      1.4258896      3.8053462e-05  76655.996    
     95000   0.94702149     0.0023323615  -0.0033658915   21.86315       20.456823      1.4063269      0              77298.862    
     96000   0.91119348     0.0023323615  -0.0013197298   21.825018      20.471896      1.3531223      0.00043282989  75982.247    
     97000   1.0016687      0.0023323615  -0.0019514304   22.013024      20.525546      1.487478       0.0048369955   75557.64     
     98000   1.02143        0.0023323615  -0.0057874974   22.177965      20.661142      1.5168235      0              74144.759    
     99000   1.032786       0.0023323615   0.0018228259   21.975336      20.441649      1.5336871      7.1595851e-05  77621.557    
    100000   1.0594928      0.0023323615   0.0036169719   22.011024      20.437677      1.5733468      0.00032948157  75942.294    
    100362   1.1904942      0.0023323615  -0.00089755607  22.316856      20.548972      1.7678839      0.00063845255  75541.72     
Loop time of 1.32143 on 1 procs for 100000 steps with 100 atoms

Performance: 32691734.335 tau/day, 75675.311 timesteps/s
98.8% CPU use with 1 MPI tasks x 1 OpenMP threads

MPI task timing breakdown:
Section |  min time  |  avg time  |  max time  |%varavg| %total
---------------------------------------------------------------
Pair    | 0.049808   | 0.049808   | 0.049808   |   0.0 |  3.77
Bond    | 0.12679    | 0.12679    | 0.12679    |   0.0 |  9.59
Neigh   | 0.8054     | 0.8054     | 0.8054     |   0.0 | 60.95
Comm    | 0.05505    | 0.05505    | 0.05505    |   0.0 |  4.17
Output  | 0.0010253  | 0.0010253  | 0.0010253  |   0.0 |  0.08
Modify  | 0.24915    | 0.24915    | 0.24915    |   0.0 | 18.85
Other   |            | 0.03421    |            |       |  2.59

Nlocal:            100 ave         100 max         100 min
Histogram: 1 0 0 0 0 0 0 0 0 0
Nghost:             60 ave          60 max          60 min
Histogram: 1 0 0 0 0 0 0 0 0 0
Neighs:             36 ave          36 max          36 min
Histogram: 1 0 0 0 0 0 0 0 0 0

Total # of neighbors = 36
Ave neighs/atom = 0.36
Ave special neighs/atom = 1.98
Neighbor list builds = 9821
Dangerous builds = 8265
unfix           nvtSoft
unfix           rampSoft
reset_timestep  0

write_data      ${outputfile_relaxed}
write_data      5_relaxed.data
System init for write_data ...
Generated 0 of 6 mixed pair_coeff terms from geometric mixing rule
WARNING: Communication cutoff 1.3 is shorter than a bond length based estimate of 1.7550000000000001. This may lead to errors. (src/comm.cpp:727)
WARNING: Not all mixed pair coeffs generated from mixing. Use write_data with 'pair ij' option to store all pair coeffs. (src/write_data.cpp:309)

###########################################################################
# Full LJ with Coulomb
######################################################################

# Cutoffs and parameters:
# - Values: Marcel Verkade's Bachelor Thesis
# - Mapping to atom groups: Patrick Onck's paper
# - 1: aliphatic, 2: aromatic, 3: anion, 4: cation
# pair_style	lj/cut/coul/cut <lj_cut_global> <coul_cut_global>
# pair_coeff	<type_1>  <type_2>  <eps>  <sigma>  <r_cut_lj>  <r_cut_coul>

# Problem: Onck's model is much more complex, and Marcel has no sigma reported
# Using sigma=1 randomly

variable		glob_ljeps equal 1.0
variable		glob_ljsig 	equal 1.0
variable		glob_coulcut equal 10.0
variable		att_ljcut equal 2.50
variable		rep_ljcut equal 1.12

pair_style		lj/cut/coul/cut 						${att_ljcut} 	${glob_coulcut}
pair_style		lj/cut/coul/cut 						2.5 	${glob_coulcut}
pair_style		lj/cut/coul/cut 						2.5 	10
pair_coeff		1 1 	${glob_ljeps} 	${glob_ljsig}	${att_ljcut} 	${glob_coulcut}
pair_coeff		1 1 	1 	${glob_ljsig}	${att_ljcut} 	${glob_coulcut}
pair_coeff		1 1 	1 	1	${att_ljcut} 	${glob_coulcut}
pair_coeff		1 1 	1 	1	2.5 	${glob_coulcut}
pair_coeff		1 1 	1 	1	2.5 	10
pair_coeff		1 2 	${glob_ljeps} 	${glob_ljsig}	${att_ljcut} 	${glob_coulcut}
pair_coeff		1 2 	1 	${glob_ljsig}	${att_ljcut} 	${glob_coulcut}
pair_coeff		1 2 	1 	1	${att_ljcut} 	${glob_coulcut}
pair_coeff		1 2 	1 	1	2.5 	${glob_coulcut}
pair_coeff		1 2 	1 	1	2.5 	10
pair_coeff		1 3 	${glob_ljeps} 	${glob_ljsig}	${rep_ljcut} 	${glob_coulcut}
pair_coeff		1 3 	1 	${glob_ljsig}	${rep_ljcut} 	${glob_coulcut}
pair_coeff		1 3 	1 	1	${rep_ljcut} 	${glob_coulcut}
pair_coeff		1 3 	1 	1	1.12 	${glob_coulcut}
pair_coeff		1 3 	1 	1	1.12 	10
pair_coeff		1 4 	${glob_ljeps} 	${glob_ljsig}	${rep_ljcut} 	${glob_coulcut}
pair_coeff		1 4 	1 	${glob_ljsig}	${rep_ljcut} 	${glob_coulcut}
pair_coeff		1 4 	1 	1	${rep_ljcut} 	${glob_coulcut}
pair_coeff		1 4 	1 	1	1.12 	${glob_coulcut}
pair_coeff		1 4 	1 	1	1.12 	10
pair_coeff		2 2 	${glob_ljeps} 	${glob_ljsig}	${att_ljcut} 	${glob_coulcut}
pair_coeff		2 2 	1 	${glob_ljsig}	${att_ljcut} 	${glob_coulcut}
pair_coeff		2 2 	1 	1	${att_ljcut} 	${glob_coulcut}
pair_coeff		2 2 	1 	1	2.5 	${glob_coulcut}
pair_coeff		2 2 	1 	1	2.5 	10
pair_coeff		2 3 	${glob_ljeps} 	${glob_ljsig}	${rep_ljcut} 	${glob_coulcut}
pair_coeff		2 3 	1 	${glob_ljsig}	${rep_ljcut} 	${glob_coulcut}
pair_coeff		2 3 	1 	1	${rep_ljcut} 	${glob_coulcut}
pair_coeff		2 3 	1 	1	1.12 	${glob_coulcut}
pair_coeff		2 3 	1 	1	1.12 	10
pair_coeff		2 4 	${glob_ljeps} 	${glob_ljsig}	${att_ljcut} 	${glob_coulcut}
pair_coeff		2 4 	1 	${glob_ljsig}	${att_ljcut} 	${glob_coulcut}
pair_coeff		2 4 	1 	1	${att_ljcut} 	${glob_coulcut}
pair_coeff		2 4 	1 	1	2.5 	${glob_coulcut}
pair_coeff		2 4 	1 	1	2.5 	10
pair_coeff		3 3 	${glob_ljeps} 	${glob_ljsig}	${rep_ljcut} 	${glob_coulcut}
pair_coeff		3 3 	1 	${glob_ljsig}	${rep_ljcut} 	${glob_coulcut}
pair_coeff		3 3 	1 	1	${rep_ljcut} 	${glob_coulcut}
pair_coeff		3 3 	1 	1	1.12 	${glob_coulcut}
pair_coeff		3 3 	1 	1	1.12 	10
pair_coeff		3 4 	${glob_ljeps} 	${glob_ljsig}	${att_ljcut} 	${glob_coulcut}
pair_coeff		3 4 	1 	${glob_ljsig}	${att_ljcut} 	${glob_coulcut}
pair_coeff		3 4 	1 	1	${att_ljcut} 	${glob_coulcut}
pair_coeff		3 4 	1 	1	2.5 	${glob_coulcut}
pair_coeff		3 4 	1 	1	2.5 	10
pair_coeff		4 4 	${glob_ljeps} 	${glob_ljsig}	${rep_ljcut} 	${glob_coulcut}
pair_coeff		4 4 	1 	${glob_ljsig}	${rep_ljcut} 	${glob_coulcut}
pair_coeff		4 4 	1 	1	${rep_ljcut} 	${glob_coulcut}
pair_coeff		4 4 	1 	1	1.12 	${glob_coulcut}
pair_coeff		4 4 	1 	1	1.12 	10


fix             noDriftRot 	all momentum 10 linear 1 1 1 angular
fix             nvt1 		all nvt temp ${Temp} ${Temp} 0.5
fix             nvt1 		all nvt temp 1 ${Temp} 0.5
fix             nvt1 		all nvt temp 1 1 0.5

# dump          assemble 	all custom 1000 				${outputfile_selfasb} id type xu yu zu vx vy vz
dump            lindump 	all custom ${subsample_rate} 	${outputfile_trajlin} id type xu yu zu vx vy vz
dump            lindump 	all custom 1000 	${outputfile_trajlin} id type xu yu zu vx vy vz
dump            lindump 	all custom 1000 	6_b_trajlin.data id type xu yu zu vx vy vz

run             ${runtime}
run             1000000
Generated 0 of 6 mixed pair_coeff terms from geometric mixing rule
Neighbor list info ...
  update every 1 steps, delay 10 steps, check yes
  max neighbors/atom: 2000, page size: 100000
  master list distance cutoff = 10.3
  ghost atom cutoff = 10.3
  binsize = 5.15, bins = 7 7 7
  1 neighbor lists, perpetual/occasional/extra = 1 0 0
  (1) pair lj/cut/coul/cut, perpetual
      attributes: half, newton on
      pair build: half/bin/newton
      stencil: half/bin/3d
      bin: standard
Per MPI rank memory allocation (min/avg/max) = 7.712 | 7.712 | 7.712 Mbytes
   Step          Temp         Density         Press          TotEng         PotEng         KinEng         E_pair         S/CPU     
         0   1.1904942      0.0023323615  -0.0015897542   21.811181      20.043297      1.7678839     -0.50503682     0            
      1000   0.98732106     0.0023323615  -0.0016664903   21.125705      19.659534      1.4661718     -0.78172656     33114.721    
      2000   0.85108703     0.0023323615  -0.0024854761   20.683756      19.419891      1.2638642     -0.98561517     30814.573    
      3000   0.99270647     0.0023323615   0.00052802254  21.097531      19.623362      1.4741691     -0.84017816     25467.154    
      4000   0.96451293     0.0023323615  -0.0024776678   20.61356       19.181259      1.4323017     -1.2453625      19768.977    
      5000   1.0516586      0.0023323615   0.00050767558  20.678103      19.11639       1.561713      -1.3011118      18618.061    
      6000   1.0345269      0.0023323615  -0.00063322378  20.64143       19.105158      1.5362724     -1.4059468      18196.662    
      7000   0.95259846     0.0023323615  -0.0035798064   20.676814      19.262205      1.4146087     -1.4517105      18373.249    
      8000   0.94846014     0.0023323615  -0.0013797484   20.954102      19.545638      1.4084633     -1.0288381      18370.774    
      9000   1.0511885      0.0023323615   0.00077189377  20.656965      19.09595       1.5610149     -1.4415041      18373.912    
     10000   1.1097614      0.0023323615   0.00079306455  20.657093      19.009097      1.6479957     -1.429565       18634.429    
     11000   1.033587       0.0023323615  -0.0013502864   20.781615      19.246738      1.5348768     -1.2937093      18448.387    
     12000   1.0361429      0.0023323615   0.0026451953   20.877424      19.338752      1.5386722     -1.1851291      18547.815    
     13000   0.97648463     0.0023323615   0.0070736301   20.643428      19.193348      1.4500797     -1.3728005      18777.391    
     14000   1.0218428      0.0023323615   0.0015506976   20.76521       19.247774      1.5174366     -1.436936       18573.079    
     15000   1.1080704      0.0023323615   3.2749968e-05  20.358591      18.713107      1.6454845     -1.761196       18358.049    
     16000   1.022044       0.0023323615  -0.0018078072   20.840736      19.323001      1.5177353     -1.3358348      18619.547    
     17000   0.97702277     0.0023323615   0.0012912401   20.610587      19.159708      1.4508788     -1.235465       18658.695    
     18000   1.043986       0.0023323615  -0.00083648789  20.506748      18.956428      1.5503193     -1.4832171      18455.342    
     19000   0.93300556     0.0023323615   0.0016391405   20.647843      19.262329      1.3855133     -1.4217728      18435.418    
     20000   0.95613675     0.0023323615   0.0041666408   20.760299      19.340436      1.4198631     -1.2725989      17165.851    
     21000   0.87346686     0.0023323615  -0.0031545421   20.286397      18.989299      1.2970983     -1.482747       18259.531    
     22000   1.0278464      0.0023323615   3.5358811e-05  20.7422        19.215848      1.526352      -1.3584115      18293.137    
     23000   0.99635628     0.0023323615   0.001340942    20.798373      19.318784      1.4795891     -1.1993356      18240.011    
     24000   1.0891687      0.0023323615   0.00028431619  20.816374      19.198958      1.6174155     -1.3030291      18468.496    
     25000   0.99556366     0.0023323615  -0.0014467218   20.580168      19.101756      1.478412      -1.3246802      18319.846    
     26000   0.89487843     0.0023323615  -0.0018776541   20.544634      19.21574       1.3288945     -1.4345447      18298.616    
     27000   1.0380992      0.0023323615   0.0001043614   20.3858        18.844222      1.5415773     -1.7063486      18380.947    
     28000   0.951299       0.0023323615  -0.0032257774   20.539136      19.126457      1.412679      -1.3814475      18452.347    
     29000   0.91720414     0.0023323615  -0.0025100253   20.275522      18.913474      1.3620481     -1.5290848      18462.433    
     30000   0.95155736     0.0023323615  -0.0027545279   20.662527      19.249464      1.4130627     -1.3416174      18407.567    
     31000   0.9969276      0.0023323615   0.0013433562   20.439909      18.959472      1.4804375     -1.532886       18679.017    
     32000   1.039443       0.0023323615  -0.00019996805  20.72242       19.178847      1.5435728     -1.4268878      18694.431    
     33000   0.93385082     0.0023323615  -0.00026510591  20.502222      19.115454      1.3867685     -1.3225053      18432.222    
     34000   0.97487181     0.0023323615  -0.00078855687  20.47612       19.028436      1.4476846     -1.5464754      18442.136    
     35000   0.98419359     0.0023323615   0.00090261521  20.558565      19.097038      1.4615275     -1.4458211      18344.539    
     36000   0.95193545     0.0023323615   0.0017437021   20.217305      18.803681      1.4136241     -1.6232589      18375.35     
     37000   1.1093496      0.0023323615  -0.002719767    20.764765      19.11738       1.6473841     -1.5517918      18440.592    
     38000   1.0798989      0.0023323615  -0.0027689008   20.610247      19.006597      1.6036499     -1.4256156      18558.15     
     39000   1.0724725      0.0023323615   0.00075999082  20.638166      19.045544      1.5926216     -1.3798648      18552.521    
     40000   0.98504338     0.0023323615  -0.004394938    20.385972      18.923183      1.4627894     -1.5310778      18460.036    
     41000   1.042742       0.0023323615   0.0011632216   20.495953      18.947481      1.5484718     -1.5140215      18408.113    
     42000   0.9745868      0.0023323615   0.0015019328   20.436089      18.988828      1.4472614     -1.5587511      18414.892    
     43000   0.88864582     0.0023323615  -0.0034614971   20.398251      19.078612      1.319639      -1.4881119      18356.155    
     44000   0.90101545     0.0023323615  -0.00024800195  20.541404      19.203396      1.3380079     -1.3437162      18533.354    
     45000   0.95642719     0.0023323615  -6.9861402e-05  20.86649       19.446196      1.4202944     -1.1018895      18678.328    
     46000   1.0633786      0.0023323615   0.0036488971   20.710829      19.131711      1.5791173     -1.2616946      18889.322    
     47000   1.0026401      0.0023323615   0.0015906862   20.581233      19.092313      1.4889206     -1.3845126      18462.945    
     48000   1.0061208      0.0023323615  -0.0027818973   20.676512      19.182423      1.4940893     -1.3256713      18587.204    
     49000   1.0860836      0.0023323615   0.0034094375   20.895516      19.282682      1.6128342     -1.2143099      18552.442    
     50000   1.020144       0.0023323615   0.00074637813  20.788887      19.273973      1.5149138     -1.2984327      18647.668    
     51000   0.91123905     0.0023323615  -0.0023718207   20.801358      19.448168      1.35319       -1.1681519      18599.809    
     52000   1.085582       0.0023323615   0.00038284358  20.484783      18.872694      1.6120892     -1.6108625      18492.715    
     53000   0.99165339     0.0023323615   0.0012663562   20.419214      18.946609      1.4726053     -1.5194727      18398.474    
     54000   0.98295111     0.0023323615  -0.0072139791   20.57324       19.113558      1.4596824     -1.4868904      18616.262    
     55000   1.0358925      0.0023323615  -0.0010385621   20.587218      19.048917      1.5383003     -1.3956181      18491.17     
     56000   1.0095312      0.0023323615  -0.0042956726   20.338631      18.839477      1.4991538     -1.6800819      18443.404    
     57000   1.1719425      0.0023323615  -0.0026177313   20.473933      18.733598      1.7403345     -1.7231191      18499.063    
     58000   1.0131067      0.0023323615   0.00017081521  20.529693      19.02523       1.5044635     -1.5367454      18490.102    
     59000   0.84768491     0.0023323615   0.0011183803   20.549684      19.290872      1.2588121     -1.1819657      18528.313    
     60000   0.87474361     0.0023323615  -0.001527345    20.396168      19.097173      1.2989943     -1.3940603      18599.004    
     61000   1.0577457      0.0023323615  -0.00010844352  20.924943      19.354191      1.5707523     -1.1347298      18766.609    
     62000   1.0676089      0.0023323615   0.0024497068   20.625102      19.039703      1.5853992     -1.4173208      18563.749    
     63000   1.1212015      0.0023323615  -0.0012706484   20.737411      19.072427      1.6649842     -1.3672303      18446.607    
     64000   1.0085917      0.0023323615  -0.00052760908  20.189419      18.69166       1.4977587     -1.7649997      18433.842    
     65000   0.99045772     0.0023323615  -0.0014153384   20.416505      18.945675      1.4708297     -1.5303496      18445.084    
     66000   0.95400591     0.0023323615   0.0030201213   20.478818      19.062119      1.4166988     -1.2988248      18472.215    
     67000   1.2026811      0.0023323615   0.0020667574   20.485619      18.699638      1.7859814     -1.7639586      18336.64     
     68000   0.95676125     0.0023323615   0.0020565895   20.525658      19.104867      1.4207905     -1.3311525      18257.734    
     69000   1.0290259      0.0023323615  -0.00021719382  20.738195      19.210092      1.5281034     -1.2982397      18286.836    
     70000   1.0057267      0.0023323615  -0.0034639103   20.672766      19.179262      1.4935042     -1.3442478      18654.67     
     71000   1.0233771      0.0023323615   0.0022520185   20.528608      19.008893      1.519715      -1.5794629      18475.952    
     72000   0.98705957     0.0023323615  -0.0028118076   20.70617       19.240386      1.4657835     -1.3778852      18397.666    
     73000   0.95910106     0.0023323615   0.00033953362  20.339573      18.915308      1.4242651     -1.6214643      18585.318    
     74000   0.95718733     0.0023323615  -0.0068182769   20.620859      19.199436      1.4214232     -1.2840919      18632.738    
     75000   0.96825687     0.0023323615   0.00020307319  20.372008      18.934147      1.4378615     -1.5159868      18652.324    
     76000   0.8801963      0.0023323615   0.0033211514   20.417991      19.1109        1.3070915     -1.4690607      18438.518    
     77000   0.9199382      0.0023323615  -0.0017389152   20.679257      19.313149      1.3661082     -1.3046688      18456.445    
     78000   1.0635014      0.0023323615   0.00034425334  20.613444      19.034145      1.5792995     -1.4897331      18412.005    
     79000   0.85324095     0.0023323615  -0.0012808064   20.403077      19.136014      1.2670628     -1.3131014      18398.636    
     80000   0.99104294     0.0023323615   0.00033587711  20.699068      19.22737       1.4716988     -1.2372488      18482.586    
     81000   0.98706677     0.0023323615  -0.001772965    20.566644      19.10085       1.4657941     -1.3867112      18384.657    
     82000   0.97887614     0.0023323615   0.0008210932   20.408969      18.955338      1.4536311     -1.56231        18382.815    
     83000   1.0358649      0.0023323615  -0.00036919777  20.474971      18.936712      1.5382593     -1.5771178      18351.869    
     84000   0.90297383     0.0023323615   0.0038398212   20.351547      19.010631      1.3409161     -1.4773845      18347.878    
     85000   1.1021823      0.0023323615   0.0012912518   20.364958      18.728217      1.6367407     -1.7300463      18402.249    
     86000   1.1017752      0.0023323615  -0.0012857384   20.720097      19.083961      1.6361362     -1.3860159      18314.236    
     87000   1.1465056      0.0023323615   0.0018586266   20.68083       18.978269      1.7025608     -1.5603718      18383.181    
     88000   1.002142       0.0023323615  -0.0030943585   20.270368      18.782187      1.4881809     -1.6386396      18313.99     
     89000   1.0200061      0.0023323615  -0.0023740771   20.433592      18.918882      1.514709      -1.6243477      18339.356    
     90000   1.0232957      0.0023323615   0.0016233107   20.397182      18.877588      1.519594      -1.6040728      18272.193    
     91000   0.9859601      0.0023323615  -0.0023473261   20.513684      19.049533      1.4641508     -1.4872206      18414.145    
     92000   0.94324298     0.0023323615  -0.002375839    20.417155      19.016439      1.4007158     -1.4834244      18419.596    
     93000   0.99338612     0.0023323615  -0.0038892053   20.494062      19.018884      1.4751784     -1.5436634      18278.651    
     94000   1.0002491      0.0023323615  -0.00074904616  20.330817      18.845447      1.4853699     -1.5854842      18491.232    
     95000   1.0456935      0.0023323615   0.0023204608   20.53833       18.985475      1.5528549     -1.5606008      18483.969    
     96000   0.92993842     0.0023323615   0.0024743785   20.447791      19.066833      1.3809586     -1.5036714      18349.116    
     97000   0.90862532     0.0023323615   0.00081173129  20.389477      19.040168      1.3493086     -1.4997488      18337.125    
     98000   0.89313441     0.0023323615  -0.00054762105  20.709405      19.3831        1.3263046     -1.2471198      18413.89     
     99000   0.90037132     0.0023323615  -0.00066972184  20.730419      19.393367      1.3370514     -1.2364945      18511.324    
    100000   1.0074244      0.0023323615   6.8666726e-05  20.603023      19.106997      1.4960252     -1.380465       18428.703    
    101000   0.90659869     0.0023323615   0.0045855819   20.383996      19.037697      1.346299      -1.4742125      18370.077    
    102000   1.1891978      0.0023323615   0.0020383456   20.694453      18.928494      1.7659587     -1.5291342      18458.476    
    103000   1.0086635      0.0023323615   0.0010405435   20.298093      18.800228      1.4978653     -1.6694963      18374.683    
    104000   1.0174481      0.0023323615  -0.002167753    20.684899      19.173989      1.5109104     -1.4353064      18304.727    
    105000   0.97739045     0.0023323615  -0.0029466924   20.358814      18.907389      1.4514248     -1.538248       18386.459    
    106000   1.0123871      0.0023323615   0.0025744335   20.508867      19.005472      1.5033948     -1.4616885      18434.656    
    107000   0.98969417     0.0023323615   0.0012952725   20.302388      18.832692      1.4696958     -1.6497861      18327.579    
    108000   1.0108337      0.0023323615  -0.00067851298  20.552655      19.051567      1.5010881     -1.4435774      18495.618    
    109000   0.93610194     0.0023323615   0.00082175869  20.355192      18.965081      1.3901114     -1.6441101      18384.352    
    110000   1.0354349      0.0023323615   0.0033103498   20.755323      19.217702      1.5376208     -1.3173611      18392.293    
    111000   0.99479694     0.0023323615  -0.0023589979   20.647936      19.170663      1.4772735     -1.3855943      18468.103    
    112000   1.1040216      0.0023323615  -0.0080900124   20.473628      18.834155      1.6394721     -1.6717171      18464.547    
    113000   0.91911577     0.0023323615   0.0018803467   20.139102      18.774215      1.3648869     -1.7033843      18574.807    
    114000   0.86269669     0.0023323615   0.0011588794   20.476646      19.195542      1.2811046     -1.3773954      18616.919    
    115000   1.0265021      0.0023323615   0.0019276196   20.845321      19.320965      1.5243555     -1.3013139      18542.409    
    116000   1.0099248      0.0023323615  -0.0033789999   20.743493      19.243755      1.4997383     -1.2287797      18600.654    
    117000   1.0344354      0.0023323615   0.00085238501  20.577805      19.041669      1.5361366     -1.4895159      18390.524    
    118000   0.94927696     0.0023323615  -0.00095692807  20.59353       19.183854      1.4096763     -1.4764614      18386.123    
    119000   0.83668283     0.0023323615   0.0052224822   19.981469      18.738995      1.242474      -1.7185485      18560.497    
    120000   1.1352776      0.0023323615  -0.0019765054   20.784955      19.099068      1.6858873     -1.4341359      18551.872    
    121000   1.0545763      0.0023323615  -0.0019216624   20.732434      19.166389      1.5660458     -1.3839659      18567.002    
    122000   1.1225374      0.0023323615   0.0011923086   20.769635      19.102667      1.6669681     -1.3935535      18477.091    
    123000   0.98017529     0.0023323615  -0.0043015537   20.654561      19.199001      1.4555603     -1.3759926      18526.02     
    124000   0.93448927     0.0023323615   0.0020348392   20.610199      19.222483      1.3877166     -1.304891       18617.439    
    125000   0.97749858     0.0023323615   0.0018670964   20.605175      19.153589      1.4515854     -1.3891233      18480.133    
    126000   1.0273962      0.0023323615   0.00035101431  20.618863      19.093179      1.5256833     -1.4320938      18538.001    
    127000   0.95098082     0.0023323615   0.0016018153   20.644867      19.232661      1.4122065     -1.3200177      18494.004    
    128000   1.0197391      0.0023323615  -0.00076940783  20.667365      19.153053      1.5143126     -1.3795798      18528.317    
    129000   0.94803299     0.0023323615   0.0032841859   20.788228      19.380399      1.407829      -1.3837294      18587.311    
    130000   0.94979194     0.0023323615   0.00066788193  20.191047      18.780606      1.410441      -1.7303374      18482.251    
    131000   0.98833898     0.0023323615  -0.0015132751   20.616744      19.149061      1.4676834     -1.4684039      18410.877    
    132000   0.965757       0.0023323615  -3.9830111e-05  20.409311      18.975162      1.4341491     -1.5359528      18712.867    
    133000   0.93217245     0.0023323615  -0.003688144    20.400387      19.016111      1.3842761     -1.5765296      18690.959    
    134000   0.95617545     0.0023323615   0.0010836871   20.327609      18.907688      1.4199205     -1.5907653      18623.317    
    135000   1.0274887      0.0023323615   0.0070378428   20.678827      19.153006      1.5258207     -1.464222       18559.745    
    136000   1.0351693      0.0023323615   0.0014071514   20.745859      19.208633      1.5372263     -1.3662195      18522.637    
    137000   0.93424342     0.0023323615  -0.0012887836   20.474057      19.086705      1.3873515     -1.3403487      18670.53     
    138000   1.0860705      0.0023323615  -0.0018397171   20.954285      19.341471      1.6128147     -1.1817957      18721.624    
    139000   1.0219108      0.0023323615   0.00044765389  20.565617      19.04808       1.5175375     -1.4396395      18541.871    
    140000   0.84690604     0.0023323615  -0.0023314835   20.19702       18.939365      1.2576555     -1.4779141      18385.893    
    141000   0.95485344     0.0023323615   0.0054037425   20.514213      19.096256      1.4179574     -1.4739572      18470.93     
    142000   1.1700957      0.0023323615   0.0025645644   20.831903      19.094311      1.7375922     -1.4470999      18518.805    
    143000   1.103738       0.0023323615   0.0015742645   20.433989      18.794938      1.639051      -1.7139656      18475.812    
    144000   0.9543216      0.0023323615  -0.00097522237  20.430944      19.013777      1.4171676     -1.5533096      18471.357    
    145000   1.014504       0.0023323615   0.0019687139   20.622411      19.115872      1.5065384     -1.3857463      18469.07     
    146000   1.0964077      0.0023323615  -0.0011424631   20.713278      19.085113      1.6281655     -1.4726533      18564.626    
    147000   1.0208222      0.0023323615  -0.0017536474   20.667267      19.151346      1.5159209     -1.3788224      18492.215    
    148000   1.1386689      0.0023323615   0.00041584526  20.48973       18.798807      1.6909234     -1.6611236      18543.873    
    149000   0.93056936     0.0023323615  -0.0012664204   20.252196      18.870301      1.3818955     -1.5883968      18371.484    
    150000   1.0677044      0.0023323615  -0.0010763946   20.526558      18.941017      1.585541      -1.5188186      18405.099    
    151000   1.0361315      0.0023323615   0.0016474521   20.636853      19.098198      1.5386552     -1.4008324      18452.729    
    152000   0.96726112     0.0023323615  -0.0020043347   20.59772       19.161337      1.4363828     -1.3936767      18533.24     
    153000   1.0101021      0.0023323615  -0.0025127602   20.566757      19.066756      1.5000016     -1.5400499      18302.395    
    154000   1.0435208      0.0023323615   0.003327097    20.35667       18.807042      1.5496284     -1.7256214      18426.525    
    155000   0.84802297     0.0023323615  -0.0016049938   20.460155      19.200841      1.2593141     -1.3594166      18397.795    
    156000   0.97740794     0.0023323615  -0.00053615217  20.34767       18.89622       1.4514508     -1.620566       18205.551    
    157000   0.92469107     0.0023323615  -0.0017824606   20.290685      18.917519      1.3731662     -1.5076639      18254.372    
    158000   0.99773224     0.0023323615   0.0036569113   20.318379      18.836747      1.4816324     -1.6699168      18289.446    
    159000   0.92658412     0.0023323615  -0.0023802434   20.378527      19.002549      1.3759774     -1.5755799      18231.765    
    160000   1.0315153      0.0023323615  -0.0012472706   20.720107      19.188307      1.5318002     -1.2446824      18317.57     
    161000   0.8727026      0.0023323615  -0.0031424566   20.482146      19.186182      1.2959634     -1.2607645      18399.443    
    162000   0.979427       0.0023323615   0.004390886    20.55354       19.099091      1.4544491     -1.3826228      18438.786    
    163000   1.0923191      0.0023323615   0.00304991     20.596732      18.974638      1.6220939     -1.4327661      18640.415    
    164000   1.0606416      0.0023323615  -0.0010603899   20.727945      19.152892      1.5750528     -1.3385474      18729.82     
    165000   0.97499278     0.0023323615  -0.0012368959   20.776607      19.328743      1.4478643     -1.2379106      18712.544    
    166000   1.165089       0.0023323615  -0.00075164776  20.958118      19.227961      1.7301572     -1.4951258      18677.706    
    167000   1.0534318      0.0023323615   0.0016607171   20.810117      19.245771      1.5643462     -1.2920894      18690.153    
    168000   0.99885733     0.0023323615   0.0017743903   20.675435      19.192131      1.4833031     -1.2213338      18817.905    
    169000   0.97736811     0.0023323615   0.00045839372  20.665922      19.21453       1.4513916     -1.245148       19041.703    
    170000   0.95007509     0.0023323615  -0.0012010064   20.657335      19.246473      1.4108615     -1.2267823      18966.698    
    171000   0.81879091     0.0023323615  -0.0038971168   20.439674      19.22377       1.2159045     -1.3215291      18385.903    
    172000   1.1603549      0.0023323615   0.0023587687   20.87017       19.147043      1.723127      -1.5421216      18419.514    
    173000   1.1302423      0.0023323615   0.0026500166   20.899358      19.220948      1.6784098     -1.2955152      18608.779    
    174000   1.0162976      0.0023323615   0.0042053033   20.567973      19.058771      1.509202      -1.3849086      19082.863    
    175000   1.0392772      0.0023323615   0.00045338748  20.464894      18.921567      1.5433266     -1.611609       18390.321    
    176000   0.94934903     0.0023323615  -0.0048379551   20.273379      18.863596      1.4097833     -1.7279293      18294.917    
    177000   0.98301402     0.0023323615   0.0013373564   20.33158       18.871804      1.4597758     -1.7710502      18365.595    
    178000   1.0234654      0.0023323615  -0.00039280917  20.326811      18.806965      1.5198461     -1.7051503      18328.061    
    179000   0.92298923     0.0023323615  -0.0018788325   20.169143      18.798504      1.370639      -1.6796558      18397.388    
    180000   0.99344889     0.0023323615  -0.0038083967   20.483878      19.008607      1.4752716     -1.4748743      18359.461    
    181000   1.0286766      0.0023323615   0.00010061588  20.531079      19.003494      1.5275847     -1.5013541      18485.592    
    182000   1.0614896      0.0023323615   0.00089967084  20.404235      18.827923      1.5763121     -1.6393948      18499.392    
    183000   0.92979502     0.0023323615   0.00039522162  20.212722      18.831977      1.3807456     -1.7218895      18503.391    
    184000   0.9747304      0.0023323615  -0.00033996762  20.166028      18.718553      1.4474746     -1.6993936      18429.744    
    185000   1.033426       0.0023323615  -0.00082954444  20.515175      18.980538      1.5346376     -1.4975754      18442.838    
    186000   0.9010845      0.0023323615  -0.0052977239   20.089804      18.751694      1.3381105     -1.7123811      18403.579    
    187000   0.93692721     0.0023323615   0.0024933868   20.358449      18.967113      1.3913369     -1.5460694      18468.527    
    188000   1.0738909      0.0023323615  -0.00055017773  20.346103      18.751375      1.594728      -1.7452496      18311.705    
    189000   1.1328727      0.0023323615  -0.0020261165   20.64939       18.967074      1.6823159     -1.6041621      18289.919    
    190000   0.90498772     0.0023323615  -0.0004491884   20.225342      18.881435      1.3439068     -1.7580022      18374.186    
    191000   0.87649205     0.0023323615   0.002852242    20.039678      18.738088      1.3015907     -1.70838        18229.221    
    192000   1.1512679      0.0023323615   0.0022197126   20.750585      19.040952      1.7096328     -1.6196088      18541.603    
    193000   0.84285007     0.0023323615   0.0030553676   20.344774      19.093142      1.2516324     -1.5139888      18510.793    
    194000   0.9848348      0.0023323615   0.00094254779  20.516978      19.054498      1.4624797     -1.4726059      18420.435    
    195000   0.9297659      0.0023323615   0.0019256134   20.43222       19.051518      1.3807024     -1.3981223      18666.727    
    196000   0.94756191     0.0023323615   0.0056576495   20.335824      18.928694      1.4071294     -1.5428888      18644.081    
    197000   0.98351623     0.0023323615  -0.002385258    20.316541      18.85602       1.4605216     -1.6835514      18354.2      
    198000   1.0512299      0.0023323615   0.0056245521   20.547049      18.985973      1.5610764     -1.6551359      18254.549    
    199000   0.98711877     0.0023323615  -0.00065311157  20.38267       18.916798      1.4658714     -1.6416919      18266.859    
    200000   1.022679       0.0023323615  -6.3865094e-06  20.688816      19.170138      1.5186783     -1.4412853      18356.398    
    201000   0.92557627     0.0023323615  -0.00072988999  20.329391      18.954911      1.3744808     -1.559948       18621.378    
    202000   0.97398166     0.0023323615  -0.0053973528   20.585646      19.139283      1.4463628     -1.5631169      18330.992    
    203000   1.0061065      0.0023323615   0.0015381207   20.358098      18.86403       1.4940682     -1.6429855      18267.003    
    204000   0.93718716     0.0023323615  -0.00062351478  20.531347      19.139624      1.3917229     -1.5731255      18242.128    
    205000   1.0317665      0.0023323615  -0.0035007312   20.475266      18.943093      1.5321733     -1.5635132      18430.377    
    206000   0.99036437     0.0023323615   0.0073545856   20.703904      19.233213      1.4706911     -1.3772735      18476.599    
    207000   1.0006673      0.0023323615   0.0015974433   20.48525       18.99926       1.4859909     -1.4065725      18308.367    
    208000   1.0436701      0.0023323615  -0.0026659644   20.46511       18.91526       1.54985       -1.6467411      18180.61     
    209000   0.88338729     0.0023323615  -0.00022905515  20.470695      19.158864      1.3118301     -1.5109112      18321.514    
    210000   1.0510664      0.0023323615   0.0047920558   20.337687      18.776854      1.5608337     -1.7950091      18226.318    
    211000   0.99157015     0.0023323615  -3.1050984e-05  20.631922      19.15944       1.4724817     -1.3223951      18609.64     
    212000   1.0372586      0.0023323615   0.0010422495   20.248048      18.707719      1.540329      -1.6935223      18568.663    
    213000   0.9149484      0.0023323615   0.0045186884   20.379186      19.020488      1.3586984     -1.5562891      18596.239    
    214000   1.0121643      0.0023323615   0.0029909204   20.473519      18.970455      1.503064      -1.5593926      18565.196    
    215000   1.1706442      0.0023323615  -0.0039357636   20.455785      18.717378      1.7384066     -1.7573203      18488.033    
    216000   0.99176564     0.0023323615   0.0038758956   20.345701      18.872929      1.472772      -1.6721844      18390.463    
    217000   0.99600599     0.0023323615   0.00080965869  20.224746      18.745677      1.4790689     -1.7080528      18448.575    
    218000   0.85054723     0.0023323615  -0.0037216453   20.695618      19.432555      1.2630626     -1.2989449      18528.52     
    219000   0.83326557     0.0023323615   0.0015214718   20.413835      19.176435      1.2373994     -1.3301002      18725.821    
    220000   1.0385069      0.0023323615   0.0012647089   20.823322      19.281139      1.5421828     -1.3412549      18651.439    
    221000   0.8966038      0.0023323615   0.0043247334   20.093037      18.761581      1.3314566     -1.7463403      18431.98     
    222000   1.0996718      0.0023323615  -0.0010178993   20.587827      18.954814      1.6330127     -1.562014       18381.235    
    223000   0.93357501     0.0023323615  -0.0017984073   20.376628      18.990269      1.3863589     -1.570717       18549.055    
    224000   1.0066708      0.0023323615   0.00028415932  20.224065      18.729159      1.4949061     -1.7676875      18290.016    
    225000   0.98401983     0.0023323615  -0.0027708581   20.211979      18.75071       1.4612694     -1.665205       18278.692    
    226000   1.0156492      0.0023323615   0.0029488862   20.372485      18.864246      1.5082391     -1.5196794      18343.535    
    227000   0.98608015     0.0023323615  -0.00065354109  20.487035      19.022706      1.464329      -1.4888397      18338.21     
    228000   0.99121314     0.0023323615  -0.0022648161   20.220295      18.748343      1.4719515     -1.7794396      18340.559    
    229000   0.88129615     0.0023323615  -0.00062591423  20.162636      18.853911      1.3087248     -1.7459305      18434.959    
    230000   0.95959928     0.0023323615   0.00061186258  20.30214       18.877135      1.4250049     -1.6807505      18376.463    
    231000   0.86933407     0.0023323615  -0.0047862511   20.320087      19.029125      1.2909611     -1.4858957      18443.734    
    232000   1.0624886      0.0023323615   0.00056948237  20.191552      18.613756      1.5777956     -1.8812553      18331.548    
    233000   0.98217458     0.0023323615   0.00084287285  20.331347      18.872818      1.4585293     -1.6868276      18245.629    
    234000   1.0026349      0.0023323615   0.0034527429   20.437301      18.948388      1.4889128     -1.5855099      18236.352    
    235000   1.0571682      0.0023323615  -0.0013916307   20.634439      19.064544      1.5698948     -1.4454951      18486.694    
    236000   1.0020828      0.0023323615  -0.0013270949   20.655734      19.167641      1.488093      -1.4389454      18549.904    
    237000   1.0826462      0.0023323615  -0.0013894395   20.639814      19.032084      1.6077296     -1.3608087      18452.937    
    238000   1.0012029      0.0023323615   0.0022786052   20.480715      18.993929      1.4867863     -1.5437026      18397.307    
    239000   1.1513142      0.0023323615  -0.0019873079   20.696603      18.986902      1.7097015     -1.5052747      18420.915    
    240000   1.0153961      0.0023323615   0.0023350155   20.486795      18.978932      1.5078633     -1.4478537      18448.844    
    241000   1.0610578      0.0023323615   0.0029287607   20.49399       18.918319      1.5756709     -1.6003721      18496.135    
    242000   1.0708682      0.0023323615   0.00039844254  20.742062      19.151823      1.5902393     -1.4344144      18516.788    
    243000   1.1043951      0.0023323615   0.0033244497   20.794901      19.154874      1.6400268     -1.3467379      18281.467    
    244000   0.91472011     0.0023323615   0.0017878555   20.35963       19.001271      1.3583594     -1.4757513      18247.504    
    245000   1.1327252      0.0023323615   0.00096331118  20.557164      18.875067      1.6820969     -1.5611744      18303.358    
    246000   1.0535055      0.0023323615   0.00063326883  20.524832      18.960376      1.5644557     -1.544819       18388.43     
    247000   1.2446787      0.0023323615   0.00042062011  20.967359      19.119011      1.8483478     -1.3870118      18473.695    
    248000   1.0164073      0.0023323615   0.0022440609   20.71657       19.207205      1.5093648     -1.2552383      18539.264    
    249000   0.94360593     0.0023323615   0.00051631987  20.502158      19.100904      1.4012548     -1.4253655      18382.812    
    250000   0.85557099     0.0023323615  -0.0001821496   20.187921      18.917398      1.2705229     -1.6128101      18397.514    
    251000   0.85709387     0.0023323615   0.0025037229   20.299093      19.026308      1.2727844     -1.4072215      18410.738    
    252000   0.99810385     0.0023323615  -0.001151114    20.749906      19.267722      1.4821842     -1.386048       18606.604    
    253000   1.3184753      0.0023323615   0.0024977322   21.095935      19.137999      1.9579358     -1.4164395      18462.528    
    254000   1.0567827      0.0023323615  -0.0021836281   20.578443      19.009121      1.5693223     -1.3777421      18590.507    
    255000   1.0362303      0.0023323615   0.00042260823  20.763839      19.225037      1.538802      -1.3172073      18538.6      
    256000   1.0803627      0.0023323615   0.004799309    20.596217      18.991879      1.6043386     -1.5194883      18475.224    
    257000   1.0857156      0.0023323615   0.00026055945  20.527385      18.915097      1.6122877     -1.5218906      18434.302    
    258000   0.96986111     0.0023323615   0.00075644971  20.330957      18.890713      1.4402438     -1.6590865      18495.282    
    259000   0.97497284     0.0023323615   0.00034165324  20.413382      18.965547      1.4478347     -1.4880593      18510.717    
    260000   1.0075053      0.0023323615   0.0013422147   20.468         18.971854      1.4961454     -1.7494628      18465.968    
    261000   0.92386237     0.0023323615  -0.0033591143   20.536222      19.164286      1.3719356     -1.3928547      18407.984    
    262000   0.98340811     0.0023323615   0.0012816585   20.452619      18.992258      1.460361      -1.5527283      18453.903    
    263000   0.86619017     0.0023323615   0.002832779    20.272525      18.986233      1.2862924     -1.4434423      18584.917    
    264000   0.85619253     0.0023323615   0.0034894347   20.138626      18.86718       1.2714459     -1.7606147      18425.709    
    265000   1.0308723      0.0023323615   0.0035218161   20.706564      19.175719      1.5308454     -1.4087143      18440.728    
    266000   0.97266729     0.0023323615  -0.0054536458   20.423884      18.979473      1.4444109     -1.5928948      18421.764    
    267000   0.93074323     0.0023323615  -0.0054171776   20.457438      19.075284      1.3821537     -1.4667915      18396.768    
    268000   1.052838       0.0023323615  -0.0031650626   20.737478      19.174013      1.5634644     -1.3365257      18301.445    
    269000   0.9572106      0.0023323615   0.0012375048   20.576836      19.155379      1.4214577     -1.3066236      18530.092    
    270000   1.0975879      0.0023323615  -0.001074983    20.660455      19.030537      1.629918      -1.4076525      18477.878    
    271000   0.96012699     0.0023323615  -0.0035722819   20.398472      18.972683      1.4257886     -1.5459652      18350.637    
    272000   1.0027023      0.0023323615  -0.0057581839   20.509388      19.020375      1.4890128     -1.456542       18262.094    
    273000   1.0865903      0.0023323615  -0.0058444856   21.000926      19.387339      1.6135866     -1.2014556      18378.672    
    274000   1.0473123      0.0023323615  -0.0019426537   21.071235      19.515976      1.5552588     -1.1533793      18484.571    
    275000   0.99074492     0.0023323615   0.00065924178  20.738247      19.266991      1.4712562     -1.3059469      18480.694    
    276000   0.95101765     0.0023323615  -0.0021881531   20.735712      19.323451      1.4122612     -1.1154735      18540.394    
    277000   1.2070748      0.0023323615   0.00046248061  20.950112      19.157606      1.792506      -1.2932717      18492.544    
    278000   0.95163687     0.0023323615  -0.0016255237   20.960183      19.547003      1.4131807     -1.0870161      18729.823    
    279000   0.82041722     0.0023323615  -0.0013489071   20.392493      19.174174      1.2183196     -1.3644307      18745.878    
    280000   1.1083721      0.0023323615  -0.0015922474   20.756069      19.110137      1.6459326     -1.2943055      18652.969    
    281000   0.90413008     0.0023323615  -0.003326485    20.359811      19.017178      1.3426332     -1.3639178      18581.443    
    282000   0.90708975     0.0023323615  -0.00071049599  20.431018      19.08399       1.3470283     -1.4085114      18637.09     
    283000   1.0193644      0.0023323615   0.00097554198  20.677276      19.16352       1.5137562     -1.3477824      18603.258    
    284000   0.85493102     0.0023323615   0.00098488705  20.405939      19.136366      1.2695726     -1.5272493      18476.66     
    285000   0.93081763     0.0023323615  -2.833062e-05   20.450505      19.068241      1.3822642     -1.4852212      18400.081    
    286000   1.0726541      0.0023323615  -0.00047457785  20.703688      19.110797      1.5928913     -1.4238549      18438.797    
    287000   0.93441119     0.0023323615   0.00085080183  20.438262      19.050661      1.3876006     -1.4715506      18480.731    
    288000   1.0920291      0.0023323615  -0.0001106756   20.571881      18.950218      1.6216633     -1.5720784      18538.978    
    289000   0.9913342      0.0023323615  -0.0012031761   20.736843      19.264712      1.4721313     -1.307892       18396.259    
    290000   0.97623095     0.0023323615  -0.00042932535  20.735911      19.286208      1.449703      -1.1988582      18514.233    
    291000   0.96679712     0.0023323615  -0.0032923522   20.586472      19.150778      1.4356937     -1.4521008      18453.64     
    292000   0.94686404     0.0023323615  -0.00064618586  20.389835      18.983742      1.4060931     -1.5510769      18488.947    
    293000   0.82864093     0.0023323615   0.0031102551   20.234174      19.003643      1.2305318     -1.4458797      18492.887    
    294000   1.0595707      0.0023323615  -0.0052575929   20.520314      18.946851      1.5734625     -1.612739       18513.375    
    295000   0.99774646     0.0023323615  -0.0014018005   20.513609      19.031956      1.4816535     -1.4172879      18483.808    
    296000   1.0328094      0.0023323615   0.00091775898  20.910826      19.377104      1.533722      -1.390728       18507.216    
    297000   0.90575908     0.0023323615  -0.0038985695   20.357985      19.012933      1.3450522     -1.5508116      18368.025    
    298000   1.011437       0.0023323615  -0.0013042111   20.732432      19.230448      1.501984      -1.3031446      18287.003    
    299000   0.87998752     0.0023323615  -0.0011614787   20.171355      18.864574      1.3067815     -1.692428       18272.798    
    300000   0.98122044     0.0023323615   0.0045764518   20.463824      19.006711      1.4571124     -1.495072       18321.319    
    301000   0.89089266     0.0023323615   0.0018112202   20.22135       18.898375      1.3229756     -1.6881658      18242.948    
    302000   1.136783       0.0023323615   3.5868478e-05  20.616968      18.928845      1.6881228     -1.6638288      18223.43     
    303000   0.96152883     0.0023323615  -0.0047158879   20.510883      19.083013      1.4278703     -1.4938449      18232.278    
    304000   1.1378343      0.0023323615   0.002206429    20.623579      18.933895      1.6896839     -1.4296573      18187.872    
    305000   1.0173326      0.0023323615  -0.0084088609   20.30125       18.790511      1.510739      -1.6538394      18254.529    
    306000   1.0241129      0.0023323615  -0.0020897632   20.617137      19.09633       1.5208077     -1.511562       18163.307    
    307000   0.8709167      0.0023323615  -0.0016571841   20.416624      19.123312      1.2933113     -1.4542182      18435.609    
    308000   0.93389667     0.0023323615  -0.00095759097  20.490972      19.104136      1.3868366     -1.3850468      18313.836    
    309000   0.84032588     0.0023323615  -0.0020521903   20.394042      19.146158      1.2478839     -1.3962393      18325.174    
    310000   0.90171037     0.0023323615  -0.0018958664   20.342415      19.003375      1.3390399     -1.5166564      18175.731    
    311000   1.0890054      0.0023323615   0.0014942471   20.644524      19.027351      1.617173      -1.5122612      18290.069    
    312000   1.0448761      0.0023323615   0.0024949966   20.740282      19.188641      1.551641      -1.3455574      18431.793    
    313000   1.0832824      0.0023323615  -0.0005870635   20.986044      19.377369      1.6086743     -1.2592042      18407.092    
    314000   0.99908281     0.0023323615   0.0043529758   20.591491      19.107853      1.483638      -1.4616902      18466.176    
    315000   1.1504374      0.0023323615  -0.00025493063  21.03559       19.32719       1.7083996     -1.3418148      18475.685    
    316000   1.0475434      0.0023323615   0.001909963    20.483765      18.928163      1.5556019     -1.5711682      18351.002    
    317000   1.0506527      0.0023323615  -0.0033413219   20.667861      19.107642      1.5602192     -1.4402263      18274.143    
    318000   0.93268727     0.0023323615  -0.0069416296   20.265321      18.88028       1.3850406     -1.5679823      18346.954    
    319000   0.99214717     0.0023323615  -0.00035040507  20.361509      18.888171      1.4733386     -1.5651897      18267.638    
    320000   0.99908023     0.0023323615   0.0014397955   20.267476      18.783842      1.4836341     -1.6730255      18531.1      
    321000   0.92099896     0.0023323615   0.00025684934  20.450481      19.082797      1.3676835     -1.4513355      18496.539    
    322000   1.0381313      0.0023323615  -0.0021271301   20.645554      19.103929      1.5416249     -1.5607098      18498.909    
    323000   1.0188015      0.0023323615   0.0037136032   20.419308      18.906388      1.5129202     -1.4895016      18378.574    
    324000   0.99881565     0.0023323615   0.00099373674  20.085121      18.60188       1.4832412     -1.8726308      18443.096    
    325000   1.037469       0.0023323615  -0.0025169087   20.375525      18.834883      1.5406414     -1.6384761      18353.88     
    326000   1.035969       0.0023323615  -0.00045042365  20.369168      18.830754      1.538414      -1.5988717      18267.882    
    327000   0.98437613     0.0023323615   0.0021725932   20.065338      18.60354       1.4617985     -1.8085103      18306.01     
    328000   0.99384109     0.0023323615  -0.001127693    20.241517      18.765663      1.475854      -1.8524657      18215.671    
    329000   0.9918616      0.0023323615  -0.0019579794   20.572986      19.100071      1.4729145     -1.3090019      18255.634    
    330000   0.97350722     0.0023323615   0.0035979742   20.385831      18.940173      1.4456582     -1.5580483      18419.263    
    331000   1.0015479      0.0023323615   0.0020440532   20.622296      19.134997      1.4872987     -1.4772752      18440.119    
    332000   0.96916056     0.0023323615  -0.0045027271   20.66214       19.222936      1.4392034     -1.2735031      18805.581    
    333000   1.0282107      0.0023323615  -0.00029365974  20.70621       19.179317      1.5268929     -1.2935874      19924.789    
    334000   0.97483368     0.0023323615  -0.0015675921   20.707877      19.260249      1.447628      -1.334069       21362.277    
    335000   0.98305671     0.0023323615   0.0014035069   20.547892      19.088052      1.4598392     -1.3343887      22533.751    
    336000   1.082982       0.0023323615   0.00042913372  20.735348      19.12712       1.6082283     -1.3283683      21075.419    
    337000   0.95121776     0.0023323615  -0.00015097487  20.570245      19.157687      1.4125584     -1.4830186      19085.964    
    338000   0.82620954     0.0023323615  -0.0016922712   20.241873      19.014952      1.2269212     -1.459735       18432.6      
    339000   0.86499306     0.0023323615  -0.0019017565   20.493527      19.209012      1.2845147     -1.3644327      18516.483    
    340000   1.0475683      0.0023323615   0.0084079427   20.938019      19.38238       1.555639      -1.335149       18656.107    
    341000   0.96594501     0.0023323615  -0.0030529965   20.350355      18.915927      1.4344283     -1.528275       18228.662    
    342000   1.0561172      0.0023323615  -0.0025810103   20.699135      19.130801      1.568334      -1.5350475      18280.549    
    343000   0.96504789     0.0023323615   0.0024485662   20.447199      19.014103      1.4330961     -1.6164257      18231.878    
    344000   0.88344497     0.0023323615  -0.0016318256   20.361679      19.049764      1.3119158     -1.4857527      18171.918    
    345000   1.2369512      0.0023323615  -0.0018567769   20.950444      19.113571      1.8368725     -1.4682853      18314.569    
    346000   1.0479359      0.0023323615   0.0039627081   20.451145      18.89496       1.5561849     -1.6209329      18394.988    
    347000   1.0470025      0.0023323615  -0.0017870086   20.603909      19.04911       1.5547987     -1.492353       18215.425    
    348000   0.9423922      0.0023323615  -0.004104621    20.550166      19.150714      1.3994524     -1.3749573      18159.226    
    349000   1.0326251      0.0023323615  -0.0016748659   20.649022      19.115574      1.5334483     -1.3320653      18159.94     
    350000   1.2180152      0.0023323615  -0.0022316995   21.069046      19.260294      1.8087526     -1.2838702      18369.506    
    351000   1.0686855      0.0023323615   0.00029770596  20.728697      19.141699      1.586998      -1.41982        18442.204    
    352000   1.0629743      0.0023323615   3.5911031e-05  20.425175      18.846658      1.5785169     -1.656947       18144.055    
    353000   1.1594961      0.0023323615   0.0014008815   20.747532      19.02568       1.7218517     -1.5370674      18092.755    
    354000   1.0659759      0.0023323615   0.0014477581   20.387308      18.804334      1.5829742     -1.6569564      18203.535    
    355000   0.98171874     0.0023323615  -0.0034106347   20.79304       19.335188      1.4578523     -1.3012279      18282.599    
    356000   1.0755509      0.0023323615   0.0034530234   20.732959      19.135766      1.597193      -1.3995526      18358.826    
    357000   0.94043355     0.0023323615   0.0031111797   20.556401      19.159857      1.3965438     -1.4416892      18892.543    
    358000   0.93945399     0.0023323615   0.0018976121   20.495392      19.100303      1.3950892     -1.4243802      18680.275    
    359000   0.88534056     0.0023323615   0.00037682816  20.186303      18.871573      1.3147307     -1.7046631      18339.996    
    360000   1.1059001      0.0023323615  -0.00093443531  20.902156      19.259894      1.6422617     -1.4284101      18430.683    
    361000   1.0400444      0.0023323615   0.0022342848   20.52623       18.981764      1.5444659     -1.6143684      18397.314    
    362000   1.0698752      0.0023323615  -3.4817924e-05  20.529152      18.940387      1.5887647     -1.5779496      18361.561    
    363000   0.8948625      0.0023323615   0.00061301144  20.210585      18.881715      1.3288708     -1.5971251      18311.938    
    364000   1.017399       0.0023323615   0.0037263577   20.663605      19.152767      1.5108376     -1.2833438      18425.883    
    365000   1.020562       0.0023323615   0.00049780592  20.619548      19.104013      1.5155346     -1.4416261      18481.433    
    366000   0.95735433     0.0023323615  -0.0026935288   20.487374      19.065703      1.4216712     -1.4668862      18413.458    
    367000   0.82017995     0.0023323615   0.0026352656   20.101303      18.883336      1.2179672     -1.5507608      18366.173    
    368000   0.97161579     0.0023323615   0.0014448067   20.193336      18.750487      1.4428494     -1.7091146      18570.594    
    369000   1.1269295      0.0023323615  -0.00033919563  20.65173       18.978239      1.6734904     -1.4546641      18590.933    
    370000   1.1348931      0.0023323615   0.00069422826  20.867772      19.182455      1.6853162     -1.4214357      18673.265    
    371000   0.83369027     0.0023323615  -0.0029540449   20.430231      19.192201      1.2380301     -1.3230364      18507.055    
    372000   1.0219919      0.0023323615  -0.0013067683   20.34086       18.823203      1.5176579     -1.5890969      18365.73     
    373000   0.9455437      0.0023323615  -0.0039345796   20.447114      19.042982      1.4041324     -1.5674014      18339.319    
    374000   1.0040881      0.0023323615   0.002605488    20.187215      18.696144      1.4910708     -1.730612       18220.775    
    375000   0.93605091     0.0023323615  -0.0037082954   20.396295      19.006259      1.3900356     -1.5949833      18290.934    
    376000   0.96634537     0.0023323615  -0.0020337621   20.453156      19.018134      1.4350229     -1.4719111      18274.414    
    377000   0.87959839     0.0023323615  -0.00073136277  20.247174      18.94097       1.3062036     -1.4639283      18437.401    
    378000   1.0276533      0.0023323615   0.00094080208  20.225905      18.69984       1.5260652     -1.740728       18351.474    
    379000   0.8458813      0.0023323615  -0.00066922781  20.132661      18.876527      1.2561337     -1.7274426      18309.721    
    380000   0.98447281     0.0023323615  -0.0020256663   20.353173      18.891231      1.4619421     -1.7659738      18265.068    
    381000   1.049588       0.0023323615  -0.00029248118  20.426839      18.868201      1.5586382     -1.5587554      18340.798    
    382000   0.96714281     0.0023323615   0.00074180951  20.301128      18.864921      1.4362071     -1.6153619      18359.403    
    383000   0.93585158     0.0023323615   0.0024014117   20.429286      19.039547      1.3897396     -1.4819943      18532.82     
    384000   1.0151704      0.0023323615   0.00019096206  20.489137      18.981608      1.5075281     -1.586384       18501.645    
    385000   1.0416368      0.0023323615  -0.00054036932  20.318811      18.77198       1.5468306     -1.7092491      18584.339    
    386000   1.0391029      0.0023323615   0.0054118215   20.183282      18.640214      1.5430678     -1.7771368      18344.098    
    387000   0.95992004     0.0023323615   0.0049147911   20.530576      19.105095      1.4254813     -1.5549372      18484.989    
    388000   1.0387743      0.0023323615   0.001205927    20.432164      18.889584      1.5425798     -1.459416       18380.663    
    389000   1.0743004      0.0023323615  -3.3954746e-05  20.911039      19.315703      1.595336      -1.2741931      18570.546    
    390000   0.93985275     0.0023323615  -0.001018861    20.47155       19.075869      1.3956813     -1.407756       18642.197    
    391000   0.91676009     0.0023323615  -0.0028747651   20.39627       19.034881      1.3613887     -1.5278328      18329.912    
    392000   1.0706563      0.0023323615  -0.00069895113  20.673074      19.08315       1.5899246     -1.3968963      18566.767    
    393000   0.95685414     0.0023323615   0.00088448556  20.48924       19.068311      1.4209284     -1.4711737      18482.134    
    394000   1.0089791      0.0023323615   0.0011523681   20.342995      18.844661      1.498334      -1.5674289      18422.788    
    395000   0.84297656     0.0023323615  -0.0020841039   20.188655      18.936835      1.2518202     -1.521678       18446.331    
    396000   1.014219       0.0023323615   0.0035421465   20.765194      19.259079      1.5061152     -1.4032184      18350.627    
    397000   0.8539512      0.0023323615  -0.0033246675   20.147166      18.879049      1.2681175     -1.6145955      18439.833    
    398000   1.069465       0.0023323615   0.00056580236  20.665637      19.077482      1.5881555     -1.4393725      18417.832    
    399000   1.1354947      0.0023323615  -0.00068875158  20.652974      18.966764      1.6862097     -1.4999305      18441.315    
    400000   1.2386152      0.0023323615  -0.00018084474  20.677075      18.837732      1.8393435     -1.5706069      18144.533    
    401000   1.086891       0.0023323615   0.0025335355   20.486333      18.8723        1.6140331     -1.5148526      18427.703    
    402000   1.0194022      0.0023323615   0.0017121223   20.191513      18.677701      1.5138122     -1.8282965      18317.452    
    403000   0.85067446     0.0023323615  -0.00028931399  20.320223      19.056971      1.2632516     -1.5542142      18207.211    
    404000   0.94199625     0.0023323615  -0.00092997425  20.079729      18.680864      1.3988644     -1.8298572      18139.897    
    405000   0.91884029     0.0023323615  -0.0033735722   20.552063      19.187585      1.3644778     -1.4202603      18305.258    
    406000   1.0652325      0.0023323615  -0.0023792365   20.718988      19.137118      1.5818703     -1.4542453      18394.123    
    407000   1.002041       0.0023323615  -0.0016062152   20.453127      18.965096      1.4880309     -1.6415278      18218.427    
    408000   0.99048493     0.0023323615   0.0033573878   20.408394      18.937524      1.4708701     -1.5613986      18186.524    
    409000   1.0646164      0.0023323615  -0.00096704335  20.617639      19.036683      1.5809553     -1.4591285      18210.204    
    410000   1.0490155      0.0023323615   0.0032959861   20.635771      19.077983      1.557788      -1.3664216      18391.066    
[...]
    861000   1.0116519      0.0023323615  -0.0020701675   20.768027      19.265723      1.5023031     -1.3729076      18447.981    
    862000   0.98880884     0.0023323615  -0.0001668473   20.590507      19.122126      1.4683811     -1.3688172      18541.537    
    863000   0.98153651     0.0023323615   0.0017403227   20.220268      18.762686      1.4575817     -1.5503793      18461.094    
    864000   0.98870365     0.0023323615   9.8734151e-06  20.86297       19.394745      1.4682249     -1.188122       18512.732    
    865000   0.88810553     0.0023323615  -0.00026264834  20.508121      19.189284      1.3188367     -1.2951088      18514.618    
    866000   0.90180959     0.0023323615  -0.0010865094   20.242551      18.903364      1.3391872     -1.5010665      18522.41     
    867000   0.96132561     0.0023323615   0.0020987709   20.389381      18.961812      1.4275685     -1.5248861      18283.268    
    868000   1.0039756      0.0023323615   0.001551616    20.359745      18.868842      1.4909037     -1.645352       18256.919    
    869000   1.0170697      0.0023323615  -0.00084152549  20.504673      18.994324      1.5103485     -1.5088993      18313.043    
    870000   1.0439645      0.0023323615  -0.0010385602   20.48632       18.936033      1.5502873     -1.5613914      18449.489    
    871000   1.0747568      0.0023323615   0.0034796248   20.734011      19.137998      1.5960139     -1.4897386      18298.71     
    872000   0.98324786     0.0023323615  -0.0032141826   20.458348      18.998225      1.4601231     -1.6367192      18349.284    
    873000   1.1615147      0.0023323615  -0.0020637353   20.948104      19.223255      1.7248493     -1.3455315      18401.974    
    874000   1.038959       0.0023323615   0.0006596367   20.76615       19.223296      1.5428541     -1.3617479      18460.326    
    875000   0.93374829     0.0023323615   0.0013369852   20.259595      18.872978      1.3866162     -1.546325       18334.08     
    876000   1.0519882      0.0023323615   0.00036492565  20.629524      19.067321      1.5622025     -1.4325001      18304.922    
    877000   0.9356937      0.0023323615  -7.1638969e-05  20.530754      19.141249      1.3895051     -1.4038628      18447.91     
    878000   1.048374       0.0023323615   0.0035345582   20.62174       19.064904      1.5568355     -1.4797049      18391.944    
    879000   0.99890507     0.0023323615  -0.0053709753   20.421286      18.937912      1.483374      -1.589297       18315.832    
    880000   1.039502       0.0023323615  -0.0019840084   20.498786      18.955126      1.5436604     -1.5555467      18323.545    
    881000   0.95133665     0.0023323615   0.0026491273   20.380962      18.968227      1.4127349     -1.694008       18324.978    
    882000   1.0943771      0.0023323615   0.0019867096   20.805762      19.180612      1.62515       -1.4712277      18396.646    
    883000   1.0024589      0.0023323615   0.00065879989  20.51541       19.026759      1.4886515     -1.4609059      18511.634    
    884000   0.86744529     0.0023323615   0.0030499373   20.53491       19.246753      1.2881563     -1.221026       18625.204    
    885000   1.1045261      0.0023323615   0.0039490798   20.862303      19.222082      1.6402212     -1.227848       18767.417    
    886000   1.0403612      0.0023323615  -0.0017283654   20.553295      19.008359      1.5449364     -1.6599852      18634.673    
    887000   1.0699556      0.0023323615  -0.00096508618  20.606471      19.017587      1.5888841     -1.4600362      18408.877    
    888000   1.0567935      0.0023323615  -0.0014533045   20.697595      19.128257      1.5693383     -1.4654069      18339.911    
    889000   1.0254934      0.0023323615  -0.0015517082   20.542961      19.020103      1.5228576     -1.4781458      18416.119    
    890000   0.93532797     0.0023323615   0.0032527624   20.350696      18.961734      1.388962      -1.6503219      18218.573    
    891000   1.0157602      0.0023323615   0.0011371906   20.206569      18.698165      1.5084039     -1.5866708      18199.987    
    892000   1.0631385      0.0023323615   0.00044677213  20.49056       18.911799      1.5787607     -1.5744188      18212.822    
    893000   1.1016971      0.0023323615  -0.0057423438   20.512798      18.876778      1.6360202     -1.6148147      18434.591    
    894000   0.9877747      0.0023323615   0.00099353452  20.368019      18.901173      1.4668454     -1.6498662      18545.368    
    895000   1.0082604      0.0023323615  -6.6975154e-06  20.129718      18.632451      1.4972668     -1.9164386      18477.04     
    896000   0.95784765     0.0023323615  -0.0022947067   20.028231      18.605827      1.4224038     -1.887755       18495.182    
    897000   0.95609759     0.0023323615  -0.0017253622   20.372941      18.953136      1.4198049     -1.5647049      18453.193    
    898000   1.0587311      0.0023323615  -0.0033172813   20.636903      19.064688      1.5722157     -1.5658895      18490.698    
    899000   1.0178003      0.0023323615  -0.0056824609   20.612467      19.101033      1.5114335     -1.3249673      18505.658    
    900000   1.0598565      0.0023323615   0.001980666    20.771479      19.197592      1.5738869     -1.1969038      18466.986    
    901000   0.99248017     0.0023323615   0.0041433441   20.892658      19.418825      1.4738331     -1.2220106      19175.052    
    902000   1.149849       0.0023323615  -0.0042431309   20.83698       19.129454      1.7075258     -1.374568       19060.823    
    903000   0.97885952     0.0023323615  -0.0013993417   20.574503      19.120897      1.4536064     -1.272898       19117.366    
    904000   1.0844091      0.0023323615   0.002323885    20.527532      18.917184      1.6103476     -1.4907753      18557.101    
    905000   1.0742399      0.0023323615   0.0013979536   20.361359      18.766113      1.5952463     -1.685134       18276.375    
    906000   1.1135974      0.0023323615  -0.0026600111   20.578318      18.924626      1.6536922     -1.4818041      18371.203    
    907000   1.0407574      0.0023323615  -0.0025100438   20.592685      19.04716       1.5455248     -1.5432414      18359.075    
    908000   1.072753       0.0023323615   0.00017462186  20.769748      19.17671       1.5930383     -1.3410395      18332.784    
    909000   0.97833442     0.0023323615   0.00047476933  20.557733      19.104906      1.4528266     -1.3993238      18518.523    
    910000   1.018447       0.0023323615  -0.00047984216  20.801575      19.289181      1.5123938     -1.3756481      18449.09     
    911000   1.0536455      0.0023323615   0.0044464397   20.2059        18.641236      1.5646635     -1.8230821      18300.539    
    912000   0.9894043      0.0023323615  -0.00057922985  20.42009       18.950825      1.4692654     -1.5495656      18154.388    
    913000   1.0835177      0.0023323615  -0.00051671242  20.79416       19.185136      1.6090238     -1.1563052      18434.853    
    914000   1.0631439      0.0023323615  -0.0014074714   20.547347      18.968579      1.5787686     -1.545822       18558.154    
    915000   0.90993814     0.0023323615  -0.0038941818   20.331658      18.9804        1.3512581     -1.5626414      18523.08     
    916000   1.0518492      0.0023323615  -0.0026135401   20.776355      19.214359      1.5619961     -1.2649609      18718.453    
    917000   0.90659182     0.0023323615  -0.0040159997   20.516985      19.170696      1.3462889     -1.3721351      18779.773    
    918000   0.99784287     0.0023323615   0.0011384051   20.88854       19.406743      1.4817967     -1.1801582      18866.485    
    919000   0.96918996     0.0023323615   0.00049669174  20.69745       19.258203      1.4392471     -1.1357914      18939.573    
    920000   1.0071236      0.0023323615  -0.0010110312   21.031596      19.536018      1.4955785     -1.0786886      18648.512    
    921000   1.0226733      0.0023323615  -0.00045071831  20.559162      19.040492      1.5186699     -1.4681335      18509.821    
    922000   0.8878061      0.0023323615  -0.00083663434  20.32111       19.002718      1.3183921     -1.5078325      18402.988    
    923000   1.0762689      0.0023323615  -0.00084883326  20.672208      19.073948      1.5982592     -1.5042576      18351.825    
    924000   1.1175814      0.0023323615  -0.0015620442   20.703952      19.044344      1.6596084     -1.4671995      18379.173    
    925000   1.035815       0.0023323615   0.0041172408   20.792958      19.254773      1.5381853     -1.2961559      18422.41     
    926000   0.94546456     0.0023323615  -8.7683219e-05  20.674401      19.270387      1.4040149     -1.2359526      18565.272    
    927000   1.0066274      0.0023323615  -0.00092921633  20.721297      19.226455      1.4948416     -1.2383918      18528.028    
    928000   1.0477286      0.0023323615  -0.0016236083   20.664298      19.108421      1.555877      -1.3533584      18449.663    
    929000   1.0365513      0.0023323615  -0.0028251165   20.844007      19.304728      1.5392787     -1.2931015      18549.969    
    930000   0.90060635     0.0023323615  -0.00031851724  20.474292      19.136892      1.3374004     -1.3655403      18416.333    
    931000   0.94167949     0.0023323615  -0.00052238904  20.383635      18.985241      1.398394      -1.5226794      18416.489    
    932000   0.86314929     0.0023323615  -0.0012267133   20.269003      18.987226      1.2817767     -1.5134328      18351.194    
    933000   0.97703711     0.0023323615  -0.0044847992   20.491976      19.041075      1.4509001     -1.5315006      18299.23     
    934000   0.92662199     0.0023323615  -0.0044475543   20.395858      19.019824      1.3760336     -1.5430442      18410.945    
    935000   1.0042489      0.0023323615  -0.00021139317  20.207327      18.716017      1.4913096     -1.6997977      18534.744    
    936000   0.91770317     0.0023323615   0.0011334032   20.394384      19.031595      1.3627892     -1.5183357      18322.139    
    937000   1.079233       0.0023323615   0.0012124748   20.520143      18.917482      1.602661      -1.4809227      18445.643    
    938000   1.0279188      0.0023323615   0.0027637783   20.417073      18.890613      1.5264594     -1.6639796      18310.617    
    939000   1.0944571      0.0023323615  -0.0010783022   20.692039      19.06677       1.6252687     -1.4343585      18296.282    
    940000   1.1552294      0.0023323615   0.0017557417   20.655919      18.940404      1.7155156     -1.5871708      18339.544    
    941000   0.84535798     0.0023323615   0.00188074     20.240635      18.985278      1.2553566     -1.4611297      18352.49     
    942000   0.88399532     0.0023323615   0.0032797877   20.5703        19.257567      1.3127331     -1.1901551      18567.485    
    943000   1.0764713      0.0023323615   0.00047644888  20.622597      19.024037      1.5985599     -1.5550154      18536.606    
    944000   0.89063998     0.0023323615  -0.0010292659   20.356576      19.033976      1.3226004     -1.4375699      18321.423    
    945000   1.0043413      0.0023323615  -0.0010605415   20.643419      19.151972      1.4914469     -1.3603173      18419.735    
    946000   0.92919694     0.0023323615   0.0033594951   20.388964      19.009106      1.3798575     -1.5559686      18632.091    
    947000   0.98768658     0.0023323615  -0.0012253621   20.274024      18.80731       1.4667146     -1.5695534      18675.588    
    948000   1.0166288      0.0023323615   0.0029438018   20.327322      18.817628      1.5096938     -1.6351212      18612.51     
    949000   1.1278697      0.0023323615  -0.002971918    20.707303      19.032417      1.6748865     -1.5598078      18711.141    
    950000   0.89875445     0.0023323615  -0.00060400138  20.175489      18.840839      1.3346504     -1.570188       18664.427    
    951000   0.93538145     0.0023323615   0.0029411739   20.262176      18.873135      1.3890415     -1.5952341      18807.888    
    952000   0.93159268     0.0023323615   0.0022947798   19.920976      18.537561      1.3834151     -1.9139358      18672.846    
    953000   1.0058369      0.0023323615  -0.0005341849   20.637256      19.143588      1.4936678     -1.3966481      18396.374    
    954000   0.98915164     0.0023323615   0.00032792537  20.555076      19.086186      1.4688902     -1.4371491      18590.645    
    955000   1.0831397      0.0023323615  -0.004033222    20.726452      19.117989      1.6084625     -1.4434383      18570.214    
    956000   0.96113065     0.0023323615   0.00089578225  20.115874      18.688595      1.427279      -1.6992047      18503.36     
    957000   1.0131728      0.0023323615  -0.00086216502  20.642029      19.137468      1.5045616     -1.4355779      18527.113    
    958000   0.94119812     0.0023323615  -7.9906019e-05  20.005643      18.607964      1.3976792     -1.7786689      18491.629    
    959000   1.0917745      0.0023323615   0.00070398319  20.604192      18.982907      1.6212851     -1.638214       18441.083    
    960000   0.92858992     0.0023323615   0.0015259506   20.643861      19.264905      1.378956      -1.2812677      18426.917    
    961000   1.1343671      0.0023323615   0.0027305932   20.895262      19.210727      1.6845351     -1.3101686      18523.881    
    962000   0.82253888     0.0023323615  -0.00065854759  20.403262      19.181791      1.2214702     -1.2982883      18601.167    
    963000   0.98200999     0.0023323615  -0.0027991097   20.72066       19.262375      1.4582848     -1.2235711      18575.522    
    964000   1.1106978      0.0023323615   0.0025521211   20.996711      19.347325      1.6493862     -1.2436688      18638.608    
    965000   0.99093858     0.0023323615   0.0025356018   20.73183       19.260286      1.4715438     -1.2581678      18590.749    
    966000   0.95371807     0.0023323615   0.00056859924  20.442327      19.026055      1.4162713     -1.5172394      18415.643    
    967000   0.80944588     0.0023323615  -0.0057474772   20.321901      19.119874      1.2020271     -1.53739        18482.552    
    968000   0.85603678     0.0023323615  -0.0012345229   20.368164      19.096949      1.2712146     -1.4423617      18495.803    
    969000   0.97449265     0.0023323615   0.0017826988   20.399889      18.952768      1.4471216     -1.585611       18422.659    
    970000   0.88546928     0.0023323615   0.0011486644   20.115807      18.800886      1.3149219     -1.5258452      18436.015    
    971000   1.1639349      0.0023323615   0.0037302609   20.501881      18.773438      1.7284433     -1.6811182      18605.373    
    972000   1.133103       0.0023323615  -0.0028383031   20.686553      19.003895      1.682658      -1.4038446      18506.705    
    973000   1.0195913      0.0023323615   0.0014741493   20.670303      19.15621       1.5140931     -1.4381805      18369.891    
    974000   0.98935806     0.0023323615  -0.0018683861   20.452869      18.983672      1.4691967     -1.4842985      18446.758    
    975000   1.0569576      0.0023323615  -0.00087501284  20.944205      19.374623      1.569582      -1.2265047      18478.186    
    976000   1.1359364      0.0023323615   0.001078607    20.827719      19.140853      1.6868656     -1.2828411      18491.222    
    977000   1.041149       0.0023323615   0.0056236535   20.623513      19.077407      1.5461063     -1.4257942      18439.526    
    978000   1.1225613      0.0023323615   0.0024746281   20.713843      19.04684       1.6670035     -1.3813431      18475.241    
    979000   1.0064661      0.0023323615  -0.0025604305   20.540175      19.045573      1.4946022     -1.4408503      18534.882    
    980000   0.89884939     0.0023323615  -0.00021625914  20.216771      18.881979      1.3347913     -1.5482664      18549.483    
    981000   1.1835124      0.0023323615  -0.00095308358  20.668213      18.910697      1.7575159     -1.7326642      18525.593    
    982000   1.0648144      0.0023323615   0.0003556052   20.669787      19.088537      1.5812495     -1.3979939      18572.08     
    983000   1.0475069      0.0023323615  -0.00092357131  20.178758      18.62321       1.5555477     -1.8372913      18569.333    
    984000   1.0808832      0.0023323615  -0.00017878337  20.719563      19.114451      1.6051116     -1.3437025      18462.914    
    985000   0.94646391     0.0023323615  -0.0012341219   20.352972      18.947473      1.4054989     -1.5406875      18393.445    
    986000   1.1209548      0.0023323615  -0.0012396695   20.681574      19.016956      1.6646179     -1.4936714      18366.19     
    987000   0.91989725     0.0023323615   0.0002107769   20.117796      18.751749      1.3660474     -1.6077419      18392.391    
    988000   0.95490172     0.0023323615   0.0052664324   20.557126      19.139097      1.4180291     -1.4702657      18359.37     
    989000   0.95708941     0.0023323615  -0.0023885319   20.252881      18.831604      1.4212778     -1.6219035      18415.259    
    990000   0.89239392     0.0023323615  -0.0040266077   20.602422      19.277217      1.325205      -1.4448759      18298.274    
    991000   1.0192011      0.0023323615  -0.0029464225   20.331311      18.817798      1.5135136     -1.6973981      18311.245    
    992000   0.95520156     0.0023323615  -0.0016436024   20.308529      18.890055      1.4184743     -1.5624726      18417.264    
    993000   1.0129522      0.0023323615  -0.0055580008   20.544958      19.040724      1.5042341     -1.5454556      18344.671    
    994000   0.96403086     0.0023323615  -0.00037405811  20.542977      19.111391      1.4315858     -1.4960535      18384.362    
    995000   1.0667347      0.0023323615  -0.0032800026   20.719634      19.135533      1.584101      -1.471513       18423.22     
    996000   1.0555225      0.0023323615  -0.0030879124   20.50271       18.935259      1.567451      -1.5846431      18293.612    
    997000   1.0438909      0.0023323615   0.0028010553   20.639484      19.089306      1.550178      -1.4686142      18284.853    
    998000   1.0116914      0.0023323615  -0.00044299356  20.583972      19.08161       1.5023618     -1.4262903      18346.155    
    999000   1.0226252      0.0023323615   0.0046071368   20.849302      19.330704      1.5185985     -1.4193243      18572.384    
   1000000   1.0936617      0.0023323615   0.00028386139  20.494973      18.870886      1.6240877     -1.4935158      18555.611    
Loop time of 54.1115 on 1 procs for 1000000 steps with 100 atoms

Performance: 7983521.752 tau/day, 18480.374 timesteps/s
99.4% CPU use with 1 MPI tasks x 1 OpenMP threads

MPI task timing breakdown:
Section |  min time  |  avg time  |  max time  |%varavg| %total
---------------------------------------------------------------
Pair    | 45.143     | 45.143     | 45.143     |   0.0 | 83.43
Bond    | 1.2687     | 1.2687     | 1.2687     |   0.0 |  2.34
Neigh   | 3.8059     | 3.8059     | 3.8059     |   0.0 |  7.03
Comm    | 1.3724     | 1.3724     | 1.3724     |   0.0 |  2.54
Output  | 0.21571    | 0.21571    | 0.21571    |   0.0 |  0.40
Modify  | 1.9496     | 1.9496     | 1.9496     |   0.0 |  3.60
Other   |            | 0.3559     |            |       |  0.66

Nlocal:            100 ave         100 max         100 min
Histogram: 1 0 0 0 0 0 0 0 0 0
Nghost:            292 ave         292 max         292 min
Histogram: 1 0 0 0 0 0 0 0 0 0
Neighs:           4851 ave        4851 max        4851 min
Histogram: 1 0 0 0 0 0 0 0 0 0

Total # of neighbors = 4851
Ave neighs/atom = 48.51
Ave special neighs/atom = 1.98
Neighbor list builds = 97841
Dangerous builds = 79562

write_data      ${outputfile_assembled} nofix nocoeff
write_data      7_assembled.data nofix nocoeff
System init for write_data ...
Generated 0 of 6 mixed pair_coeff terms from geometric mixing rule

Total wall time: 0:00:55
