LAMMPS (23 Jun 2022 - Update 1)
OMP_NUM_THREADS environment is not set. Defaulting to 1 thread. (src/comm.cpp:98)
  using 1 OpenMP thread(s) per MPI task


variable        runtime equal 1000000
variable		subsample_rate equal 1000

variable		outputfile_created string '3_created.data'
variable		outputfile_relaxed string '5_relaxed.data'
variable		outputfile_selfasb string '6_a_self_assemble.lammpstrj'
variable		outputfile_trajlin string '6_b_trajlin.data'
variable		outputfile_assembled string '7_assembled.data'

units           lj
atom_style      full
dimension       3
boundary        p p p
timestep        0.005

read_data       ${outputfile_created}
read_data       3_created.data
Reading data file ...
  orthogonal box = (0 0 0) to (35 35 35)
  1 by 1 by 1 MPI processor grid
  reading atoms ...
  100 atoms
  reading velocities ...
  100 velocities
  scanning bonds ...
  1 = max bonds/atom
  reading bonds ...
  99 bonds
Finding 1-2 1-3 1-4 neighbors ...
  special bond factors lj:    0        0        0       
  special bond factors coul:  0        0        0       
     2 = max # of 1-2 neighbors
     2 = max # of 1-3 neighbors
     4 = max # of 1-4 neighbors
     6 = max # of special neighbors
  special bonds CPU = 0.000 seconds
  read_data CPU = 0.008 seconds

bond_style      fene
bond_coeff      * 30.0 1.5 1.0 1.0
special_bonds   fene
Finding 1-2 1-3 1-4 neighbors ...
  special bond factors lj:    0        1        1       
  special bond factors coul:  0        1        1       
     2 = max # of 1-2 neighbors
     6 = max # of special neighbors
  special bonds CPU = 0.000 seconds

variable        Temp equal 1.0
variable        velSeed equal 926458

velocity        all create ${Temp} ${velSeed}
velocity        all create 1 ${velSeed}
velocity        all create 1 926458

### Output
thermo_style    custom step temp density press etotal pe ke epair spcpu
thermo          1000

###########################################################################
# Soft relaxation (to remove overlaps of particles)
######################################################################

pair_style      soft 1.0
pair_coeff      * * 0.0
variable        prefactor equal ramp(0,300)
fix             rampSoft all adapt 1 pair soft a * * v_prefactor

minimize        0.0 1.0e-8 1000 100000
WARNING: Using 'neigh_modify every 1 delay 0 check yes' setting during minimization (src/min.cpp:187)
Generated 0 of 6 mixed pair_coeff terms from geometric mixing rule
Neighbor list info ...
  update every 1 steps, delay 0 steps, check yes
  max neighbors/atom: 2000, page size: 100000
  master list distance cutoff = 1.3
  ghost atom cutoff = 1.3
  binsize = 0.65, bins = 54 54 54
  1 neighbor lists, perpetual/occasional/extra = 1 0 0
  (1) pair soft, perpetual
      attributes: half, newton on
      pair build: half/bin/newton
      stencil: half/bin/3d
      bin: standard
WARNING: Communication cutoff 1.3 is shorter than a bond length based estimate of 1.7550000000000001. This may lead to errors. (src/comm.cpp:727)
Per MPI rank memory allocation (min/avg/max) = 8.346 | 8.346 | 8.346 Mbytes
   Step          Temp         Density         Press          TotEng         PotEng         KinEng         E_pair         S/CPU     
         0   1              0.0023323615  -0.0039617958   21.524174      20.039174      1.485          0              0            
       362   1              0.0023323615   0.0023090379   21.485548      20.000548      1.485          0              60975.795    
Loop time of 0.00595118 on 1 procs for 362 steps with 100 atoms

85.2% CPU use with 1 MPI tasks x 1 OpenMP threads

Minimization stats:
  Stopping criterion = force tolerance
  Energy initial, next-to-last, final = 
      20.0391741078675   20.0005480767337   20.0005480767337
  Force two-norm initial, final = 11.878422 7.9509778e-09
  Force max component initial, final = 6.6117807 1.3572772e-09
  Final line search alpha, max atom move = 1 1.3572772e-09
  Iterations, force evaluations = 362 738

MPI task timing breakdown:
Section |  min time  |  avg time  |  max time  |%varavg| %total
---------------------------------------------------------------
Pair    | 0.00026109 | 0.00026109 | 0.00026109 |   0.0 |  4.39
Bond    | 0.0028447  | 0.0028447  | 0.0028447  |   0.0 | 47.80
Neigh   | 0.0015412  | 0.0015412  | 0.0015412  |   0.0 | 25.90
Comm    | 0.00027401 | 0.00027401 | 0.00027401 |   0.0 |  4.60
Output  | 0          | 0          | 0          |   0.0 |  0.00
Modify  | 0          | 0          | 0          |   0.0 |  0.00
Other   |            | 0.00103    |            |       | 17.31

Nlocal:            100 ave         100 max         100 min
Histogram: 1 0 0 0 0 0 0 0 0 0
Nghost:             20 ave          20 max          20 min
Histogram: 1 0 0 0 0 0 0 0 0 0
Neighs:              0 ave           0 max           0 min
Histogram: 1 0 0 0 0 0 0 0 0 0

Total # of neighbors = 0
Ave neighs/atom = 0
Ave special neighs/atom = 1.98
Neighbor list builds = 17
Dangerous builds = 0

fix             nvtSoft all nvt temp ${Temp} ${Temp} 0.5
fix             nvtSoft all nvt temp 1 ${Temp} 0.5
fix             nvtSoft all nvt temp 1 1 0.5
run             100000
Generated 0 of 6 mixed pair_coeff terms from geometric mixing rule
WARNING: Communication cutoff 1.3 is shorter than a bond length based estimate of 1.7550000000000001. This may lead to errors. (src/comm.cpp:727)
Per MPI rank memory allocation (min/avg/max) = 7.221 | 7.221 | 7.221 Mbytes
   Step          Temp         Density         Press          TotEng         PotEng         KinEng         E_pair         S/CPU     
       362   1              0.0023323615   0.0023090379   21.485548      20.000548      1.485          0              0            
      1000   0.90989032     0.0023323615  -0.0021940042   21.776974      20.425787      1.3511871      0.00036425437  66311.088    
      2000   0.86546688     0.0023323615   0.0034714157   21.677128      20.39191       1.2852183      0.0025814786   65338.953    
      3000   0.98199538     0.0023323615   0.0028144228   21.866132      20.407869      1.4582631      0.0011756043   61879.385    
      4000   1.004495       0.0023323615  -0.0014058211   21.945624      20.453949      1.4916751      0.011986179    62784.476    
      5000   1.1222705      0.0023323615   0.0044495116   21.986385      20.319813      1.6665718      0.0050317639   62999.622    
      6000   1.0538243      0.0023323615   0.0023957538   21.985713      20.420784      1.564929       0.012100514    64860.109    
      7000   1.0210598      0.0023323615  -0.00038820026  21.904665      20.388391      1.5162738      0              68717.169    
      8000   0.94819751     0.0023323615   0.0024943091   21.747889      20.339816      1.4080733      0              65416.775    
      9000   0.92364502     0.0023323615   0.0020053029   21.724166      20.352554      1.3716129      1.7780894e-05  66693.78     
     10000   0.86685188     0.0023323615   0.00078277366  21.644879      20.357604      1.287275       0.0098636418   66902.95     
     11000   1.0057103      0.0023323615   0.00010113276  21.8558        20.362321      1.4934798      0.020705341    64089.643    
     12000   0.97901664     0.0023323615  -0.0026996968   21.871206      20.417366      1.4538397      0.0052928539   63684.082    
     13000   0.97718436     0.0023323615  -6.1641422e-06  21.963706      20.512587      1.4511188      0.025022446    64172.426    
     14000   1.0530014      0.0023323615  -0.0009993112   21.947994      20.384287      1.5637071      0.0020860456   62875.56     
     15000   0.99094527     0.0023323615   0.0011068478   21.895146      20.423592      1.4715537      0.0015091113   63969.831    
     16000   0.91285091     0.0023323615  -0.00025424173  21.87524       20.519657      1.3555836      0.0047853639   63675.347    
     17000   0.82806978     0.0023323615  -0.00054698156  21.701984      20.472301      1.2296836      0              62735.899    
     18000   1.043278       0.0023323615  -6.6143919e-05  22.003299      20.454031      1.5492679      0.0034319132   64281.283    
     19000   1.0879249      0.0023323615  -0.0017804642   21.998985      20.383416      1.6155685      0.015376175    62679.958    
     20000   1.1144506      0.0023323615   0.0025198298   22.190904      20.535944      1.6549592      0              63972.736    
     21000   1.0427751      0.0023323615   0.0011345349   22.099492      20.550971      1.548521       0.00040047813  64449.43     
     22000   1.0586695      0.0023323615   0.0017882747   22.05673       20.484606      1.5721242      0              64093.632    
     23000   1.0058426      0.0023323615  -0.0055245362   21.954628      20.460951      1.4936763      0.0027619031   63070.719    
     24000   0.98273442     0.0023323615   0.0015147357   21.862067      20.402707      1.4593606      0              63202.835    
     25000   0.95835343     0.0023323615   0.0017808774   21.937761      20.514606      1.4231548      0.00020839942  63317.139    
     26000   0.93993778     0.0023323615  -0.0021777292   21.884849      20.489042      1.3958076      0.0088889834   64235.647    
     27000   0.9308188      0.0023323615  -0.00011239942  21.842252      20.459986      1.3822659      0.021612409    62840.809    
     28000   1.0149581      0.0023323615   0.0041996387   21.906846      20.399633      1.5072129      0.0064059022   63532.922    
     29000   0.92841138     0.0023323615  -2.5398808e-05  21.987185      20.608494      1.3786909      0.0046112484   63741.79     
     30000   1.021043       0.0023323615   0.001589158    22.097958      20.581709      1.5162489      0.016799508    63760.887    
     31000   1.0465985      0.0023323615  -0.0021744286   22.037917      20.483718      1.5541987      0.0057879149   63987.911    
     32000   0.98907108     0.0023323615  -0.0015558606   22.044089      20.575318      1.4687705      0.009448173    62477.352    
     33000   1.0918536      0.0023323615  -0.0025643847   22.039275      20.417873      1.6214025      0              62705.042    
     34000   0.99801543     0.0023323615   0.0016279766   21.932339      20.450286      1.4820529      0.017384617    64685.078    
     35000   1.0352271      0.0023323615  -0.0052971711   22.076004      20.538692      1.5373122      0.00010473809  64095.53     
     36000   1.1141579      0.0023323615  -0.00093279925  22.222491      20.567966      1.6545245      0.00033678641  64762.309    
     37000   1.0369415      0.0023323615   0.00013065175  22.217841      20.677983      1.5398581      0.013788831    63865.941    
     38000   1.0515596      0.0023323615   0.0021717558   22.070766      20.5092        1.561566       0.0067894678   64008.021    
     39000   1.0238495      0.0023323615   0.00026414509  22.040141      20.519725      1.5204165      0.00044464649  63307.255    
     40000   1.0749111      0.0023323615  -0.0026849368   22.039327      20.443084      1.596243       0.012651334    61784.356    
     41000   0.99070886     0.0023323615  -0.0030385564   22.03241       20.561207      1.4712027      0.00092855646  64251.698    
     42000   0.95315224     0.0023323615   0.0019788197   21.965263      20.549832      1.4154311      0.020233689    63359.058    
     43000   1.0644183      0.0023323615  -0.0011168725   22.287172      20.706511      1.5806611      0.039694129    63550.603    
     44000   1.0253747      0.0023323615  -0.006676522    22.066233      20.543552      1.5226814      0              56949.239    
     45000   0.94179556     0.0023323615  -0.0047206018   21.970644      20.572077      1.3985664      0.019869988    57016.84     
     46000   1.0083495      0.0023323615  -0.0017646918   21.972114      20.474715      1.497399       0.00026040605  63094.998    
     47000   0.98767959     0.0023323615  -0.00080218158  22.091674      20.62497       1.4667042      0.024266258    62576.57     
     48000   1.1473449      0.0023323615  -0.0025885687   22.080512      20.376705      1.7038072      0.00065962995  62902.466    
     49000   1.0679312      0.0023323615   0.0017688272   21.970482      20.384604      1.5858779      0.014142422    64366.264    
     50000   0.9581935      0.0023323615   0.0014398836   21.955202      20.532284      1.4229173      0.0055011948   64299.088    
     51000   1.0215759      0.0023323615  -0.00093292688  21.934681      20.41764       1.5170402      0              64027.279    
     52000   0.98079591     0.0023323615   0.0040701936   21.977374      20.520892      1.4564819      0.0020862422   64715.314    
     53000   1.0090927      0.0023323615   0.0013324753   22.095438      20.596935      1.4985027      0              63885.117    
     54000   0.97519627     0.0023323615   0.0013260734   22.070151      20.621984      1.4481665      0.026885444    64731.937    
     55000   1.1805087      0.0023323615  -0.001586238    22.424088      20.671033      1.7530554      0.024690954    64622.602    
     56000   0.98387121     0.0023323615   0.0037155145   22.104425      20.643376      1.4610487      0.01435493     64134.611    
     57000   1.0723812      0.0023323615  -0.0037916262   22.122726      20.53024       1.592486       0.013635549    64448.471    
     58000   1.0152349      0.0023323615   0.00021908047  22.082827      20.575203      1.5076238      0.00077375639  63985.205    
     59000   1.1424502      0.0023323615  -0.0052108657   22.30072       20.604182      1.6965385      0.013308184    65150.281    
     60000   1.0359703      0.0023323615  -0.00097887545  22.188218      20.649802      1.538416       0.00011346294  63086.03     
     61000   1.1646839      0.0023323615  -0.002085017    22.239945      20.51039       1.7295556      0.012918477    65449.665    
     62000   1.101836       0.0023323615   0.0010338878   22.171386      20.53516       1.6362265      0.001396566    64605.243    
     63000   0.96616435     0.0023323615   0.00097550571  21.903821      20.469067      1.4347541      0.013027663    65540.214    
     64000   1.0068907      0.0023323615  -0.0020278726   22.061652      20.566419      1.4952327      0.013750276    63926.765    
     65000   0.98723233     0.0023323615   0.0022441476   22.031073      20.565033      1.46604        0.0066686189   64498.203    
     66000   1.0273881      0.0023323615  -0.0003515278   22.183579      20.657908      1.5256713      0              62879.521    
     67000   0.96528212     0.0023323615  -0.00014822656  21.9396        20.506156      1.4334439      0.010365557    64177.252    
     68000   1.069702       0.0023323615   9.4754668e-05  22.081119      20.492611      1.5885075      0.00049153926  62465.23     
     69000   1.1229502      0.0023323615   0.0011504079   22.200329      20.532748      1.6675811      0.0068454249   53676.416    
     70000   1.0062775      0.0023323615  -0.00085311964  22.094021      20.599699      1.4943221      0.013222355    61931.83     
     71000   1.0906935      0.0023323615   0.00015260357  22.145362      20.525682      1.6196798      0.018338513    63202.152    
     72000   1.010401       0.0023323615  -6.0487182e-06  22.154105      20.653659      1.5004455      0.0013793953   63084.712    
     73000   1.1177599      0.0023323615  -0.0034084797   22.254435      20.594562      1.6598735      0.00011231735  65554.551    
     74000   0.9768019      0.0023323615   0.00016143893  22.07312       20.622569      1.4505508      0.0084515956   63781.217    
     75000   1.1360996      0.0023323615   0.002159116    22.161595      20.474487      1.6871079      0.0089909162   64284.518    
     76000   0.97379329     0.0023323615  -0.00068458621  21.988928      20.542845      1.446083       0              63323.807    
     77000   0.94876793     0.0023323615  -0.0016073976   21.923496      20.514575      1.4089204      0.017745108    61334.224    
     78000   0.83947996     0.0023323615  -0.00062768559  21.726727      20.480099      1.2466277      0.0054510099   63115.745    
     79000   1.0090614      0.0023323615  -0.00080262643  22.068192      20.569736      1.4984562      0.00023011166  64841.991    
     80000   1.1217643      0.0023323615  -0.0038177864   22.367902      20.702082      1.66582        0.032902439    63339.839    
     81000   1.0240158      0.0023323615   0.00023547123  22.031597      20.510933      1.5206635      0.0068767308   62936.575    
     82000   1.003236       0.0023323615  -0.0022802982   21.894199      20.404393      1.4898055      0.019136282    61531.983    
     83000   1.0554159      0.0023323615   0.004011718    22.104562      20.537269      1.5672927      0.0080869707   61755.834    
     84000   0.83527346     0.0023323615  -0.0034122221   21.874648      20.634267      1.2403811      0.0030083664   62245.796    
     85000   1.036002       0.0023323615   0.0013573923   21.962923      20.42446       1.5384629      0.015709144    63697.935    
     86000   0.9432002      0.0023323615  -0.0032183248   21.913588      20.512936      1.4006523      0.013730309    63857.16     
     87000   0.95566008     0.0023323615  -0.00049614223  21.91653       20.497375      1.4191552      0.0035862035   63402.447    
     88000   0.93373351     0.0023323615  -0.00097093893  21.870485      20.483891      1.3865943      0.0018212145   63086.304    
     89000   0.9684944      0.0023323615  -0.00047342045  21.973429      20.535215      1.4382142      0.00087524744  63216.004    
     90000   0.98293324     0.0023323615  -0.0032204602   22.050919      20.591263      1.4596559      0.015353933    64661.275    
     91000   1.0832827      0.0023323615   0.0048517083   22.11977       20.511095      1.6086749      0.0052867789   65671.14     
     92000   0.85899662     0.0023323615  -0.0013049519   21.765697      20.490087      1.27561        0.0024124001   64580.618    
     93000   0.96176266     0.0023323615  -4.4223672e-05  21.874222      20.446004      1.4282176      0.0045653365   65003.428    
     94000   0.96019503     0.0023323615   0.00024459347  21.944954      20.519064      1.4258896      3.8053462e-05  64625.78     
     95000   0.94702149     0.0023323615  -0.0033658915   21.86315       20.456823      1.4063269      0              65383.259    
     96000   0.91119348     0.0023323615  -0.0013197298   21.825018      20.471896      1.3531223      0.00043282989  64219.324    
     97000   1.0016687      0.0023323615  -0.0019514304   22.013024      20.525546      1.487478       0.0048369955   63190.47     
     98000   1.02143        0.0023323615  -0.0057874974   22.177965      20.661142      1.5168235      0              63046.578    
     99000   1.032786       0.0023323615   0.0018228259   21.975336      20.441649      1.5336871      7.1595851e-05  65392.122    
    100000   1.0594928      0.0023323615   0.0036169719   22.011024      20.437677      1.5733468      0.00032948157  63725.225    
    100362   1.1904942      0.0023323615  -0.00089755607  22.316856      20.548972      1.7678839      0.00063845255  62329.755    
Loop time of 1.57275 on 1 procs for 100000 steps with 100 atoms

Performance: 27467881.682 tau/day, 63583.059 timesteps/s
100.0% CPU use with 1 MPI tasks x 1 OpenMP threads

MPI task timing breakdown:
Section |  min time  |  avg time  |  max time  |%varavg| %total
---------------------------------------------------------------
Pair    | 0.05824    | 0.05824    | 0.05824    |   0.0 |  3.70
Bond    | 0.14591    | 0.14591    | 0.14591    |   0.0 |  9.28
Neigh   | 0.89976    | 0.89976    | 0.89976    |   0.0 | 57.21
Comm    | 0.078726   | 0.078726   | 0.078726   |   0.0 |  5.01
Output  | 0.0022862  | 0.0022862  | 0.0022862  |   0.0 |  0.15
Modify  | 0.35118    | 0.35118    | 0.35118    |   0.0 | 22.33
Other   |            | 0.03664    |            |       |  2.33

Nlocal:            100 ave         100 max         100 min
Histogram: 1 0 0 0 0 0 0 0 0 0
Nghost:             60 ave          60 max          60 min
Histogram: 1 0 0 0 0 0 0 0 0 0
Neighs:             36 ave          36 max          36 min
Histogram: 1 0 0 0 0 0 0 0 0 0

Total # of neighbors = 36
Ave neighs/atom = 0.36
Ave special neighs/atom = 1.98
Neighbor list builds = 9821
Dangerous builds = 8265
unfix           nvtSoft
unfix           rampSoft
reset_timestep  0

write_data      ${outputfile_relaxed}
write_data      5_relaxed.data
System init for write_data ...
Generated 0 of 6 mixed pair_coeff terms from geometric mixing rule
WARNING: Communication cutoff 1.3 is shorter than a bond length based estimate of 1.7550000000000001. This may lead to errors. (src/comm.cpp:727)
WARNING: Not all mixed pair coeffs generated from mixing. Use write_data with 'pair ij' option to store all pair coeffs. (src/write_data.cpp:309)

###########################################################################
# Full LJ with Coulomb
######################################################################

# Cutoffs and parameters:
# - Values: Marcel Verkade's Bachelor Thesis
# - Mapping to atom groups: Patrick Onck's paper
# - 1: aliphatic, 2: aromatic, 3: anion, 4: cation
# pair_style	lj/cut/coul/cut <lj_cut_global> <coul_cut_global>
# pair_coeff	<type_1>  <type_2>  <eps>  <sigma>  <r_cut_lj>  <r_cut_coul>

# Problem: Onck's model is much more complex, and Marcel has no sigma reported
# Using sigma=1 randomly

variable		glob_ljeps equal 1.0
variable		glob_ljsig 	equal 1.0
variable		glob_coulcut equal 10.0
variable		att_ljcut equal 2.50
variable		rep_ljcut equal 1.12

pair_style		lj/cut/coul/cut 						${att_ljcut} 	${glob_coulcut}
pair_style		lj/cut/coul/cut 						2.5 	${glob_coulcut}
pair_style		lj/cut/coul/cut 						2.5 	10
pair_coeff		1 1 	${glob_ljeps} 	${glob_ljsig}	${att_ljcut} 	${glob_coulcut}
pair_coeff		1 1 	1 	${glob_ljsig}	${att_ljcut} 	${glob_coulcut}
pair_coeff		1 1 	1 	1	${att_ljcut} 	${glob_coulcut}
pair_coeff		1 1 	1 	1	2.5 	${glob_coulcut}
pair_coeff		1 1 	1 	1	2.5 	10
pair_coeff		1 2 	${glob_ljeps} 	${glob_ljsig}	${att_ljcut} 	${glob_coulcut}
pair_coeff		1 2 	1 	${glob_ljsig}	${att_ljcut} 	${glob_coulcut}
pair_coeff		1 2 	1 	1	${att_ljcut} 	${glob_coulcut}
pair_coeff		1 2 	1 	1	2.5 	${glob_coulcut}
pair_coeff		1 2 	1 	1	2.5 	10
pair_coeff		1 3 	${glob_ljeps} 	${glob_ljsig}	${rep_ljcut} 	${glob_coulcut}
pair_coeff		1 3 	1 	${glob_ljsig}	${rep_ljcut} 	${glob_coulcut}
pair_coeff		1 3 	1 	1	${rep_ljcut} 	${glob_coulcut}
pair_coeff		1 3 	1 	1	1.12 	${glob_coulcut}
pair_coeff		1 3 	1 	1	1.12 	10
pair_coeff		1 4 	${glob_ljeps} 	${glob_ljsig}	${rep_ljcut} 	${glob_coulcut}
pair_coeff		1 4 	1 	${glob_ljsig}	${rep_ljcut} 	${glob_coulcut}
pair_coeff		1 4 	1 	1	${rep_ljcut} 	${glob_coulcut}
pair_coeff		1 4 	1 	1	1.12 	${glob_coulcut}
pair_coeff		1 4 	1 	1	1.12 	10
pair_coeff		2 2 	${glob_ljeps} 	${glob_ljsig}	${att_ljcut} 	${glob_coulcut}
pair_coeff		2 2 	1 	${glob_ljsig}	${att_ljcut} 	${glob_coulcut}
pair_coeff		2 2 	1 	1	${att_ljcut} 	${glob_coulcut}
pair_coeff		2 2 	1 	1	2.5 	${glob_coulcut}
pair_coeff		2 2 	1 	1	2.5 	10
pair_coeff		2 3 	${glob_ljeps} 	${glob_ljsig}	${rep_ljcut} 	${glob_coulcut}
pair_coeff		2 3 	1 	${glob_ljsig}	${rep_ljcut} 	${glob_coulcut}
pair_coeff		2 3 	1 	1	${rep_ljcut} 	${glob_coulcut}
pair_coeff		2 3 	1 	1	1.12 	${glob_coulcut}
pair_coeff		2 3 	1 	1	1.12 	10
pair_coeff		2 4 	${glob_ljeps} 	${glob_ljsig}	${att_ljcut} 	${glob_coulcut}
pair_coeff		2 4 	1 	${glob_ljsig}	${att_ljcut} 	${glob_coulcut}
pair_coeff		2 4 	1 	1	${att_ljcut} 	${glob_coulcut}
pair_coeff		2 4 	1 	1	2.5 	${glob_coulcut}
pair_coeff		2 4 	1 	1	2.5 	10
pair_coeff		3 3 	${glob_ljeps} 	${glob_ljsig}	${rep_ljcut} 	${glob_coulcut}
pair_coeff		3 3 	1 	${glob_ljsig}	${rep_ljcut} 	${glob_coulcut}
pair_coeff		3 3 	1 	1	${rep_ljcut} 	${glob_coulcut}
pair_coeff		3 3 	1 	1	1.12 	${glob_coulcut}
pair_coeff		3 3 	1 	1	1.12 	10
pair_coeff		3 4 	${glob_ljeps} 	${glob_ljsig}	${att_ljcut} 	${glob_coulcut}
pair_coeff		3 4 	1 	${glob_ljsig}	${att_ljcut} 	${glob_coulcut}
pair_coeff		3 4 	1 	1	${att_ljcut} 	${glob_coulcut}
pair_coeff		3 4 	1 	1	2.5 	${glob_coulcut}
pair_coeff		3 4 	1 	1	2.5 	10
pair_coeff		4 4 	${glob_ljeps} 	${glob_ljsig}	${rep_ljcut} 	${glob_coulcut}
pair_coeff		4 4 	1 	${glob_ljsig}	${rep_ljcut} 	${glob_coulcut}
pair_coeff		4 4 	1 	1	${rep_ljcut} 	${glob_coulcut}
pair_coeff		4 4 	1 	1	1.12 	${glob_coulcut}
pair_coeff		4 4 	1 	1	1.12 	10


fix             noDrift 	all momentum 10 linear 1 1 1
fix             nvt1 		all nvt temp ${Temp} ${Temp} 0.5
fix             nvt1 		all nvt temp 1 ${Temp} 0.5
fix             nvt1 		all nvt temp 1 1 0.5

# dump          assemble 	all custom 1000 				${outputfile_selfasb} id type xu yu zu vx vy vz
dump            lindump 	all custom ${subsample_rate} 	${outputfile_trajlin} id type xu yu zu vx vy vz
dump            lindump 	all custom 1000 	${outputfile_trajlin} id type xu yu zu vx vy vz
dump            lindump 	all custom 1000 	6_b_trajlin.data id type xu yu zu vx vy vz

run             ${runtime}
run             1000000
Generated 0 of 6 mixed pair_coeff terms from geometric mixing rule
Neighbor list info ...
  update every 1 steps, delay 10 steps, check yes
  max neighbors/atom: 2000, page size: 100000
  master list distance cutoff = 10.3
  ghost atom cutoff = 10.3
  binsize = 5.15, bins = 7 7 7
  1 neighbor lists, perpetual/occasional/extra = 1 0 0
  (1) pair lj/cut/coul/cut, perpetual
      attributes: half, newton on
      pair build: half/bin/newton
      stencil: half/bin/3d
      bin: standard
Per MPI rank memory allocation (min/avg/max) = 7.712 | 7.712 | 7.712 Mbytes
   Step          Temp         Density         Press          TotEng         PotEng         KinEng         E_pair         S/CPU     
         0   1.1904942      0.0023323615  -0.0015237583   21.905769      20.137885      1.7678839     -0.41044927     0            
      1000   1.0305758      0.0023323615  -0.0021989641   21.264452      19.734047      1.5304051     -0.7829108      24821.796    
      2000   0.99993408     0.0023323615  -0.0014853031   21.073307      19.588405      1.4849021     -0.87950783     22234.98     
      3000   1.0081938      0.0023323615   8.0697651e-05  20.640954      19.143786      1.4971678     -1.248511       19696.365    
      4000   0.87566787     0.0023323615  -0.0019992941   20.743996      19.443629      1.3003668     -1.016927       15866.268    
      5000   0.82409085     0.0023323615  -0.0015165574   20.162941      18.939166      1.2237749     -1.4186911      13879.268    
      6000   0.90435326     0.0023323615  -0.0023834916   20.273981      18.931017      1.3429646     -1.5774193      14010.488    
      7000   1.0106816      0.0023323615   0.0031561617   20.739919      19.239056      1.5008622     -1.2492475      15939.181    
      8000   1.1593046      0.0023323615   0.0016781797   20.763763      19.042195      1.7215673     -1.3993779      18505.564    
      9000   1.0868266      0.0023323615  -0.0023491785   20.995426      19.381488      1.6139375     -1.0581357      19469.378    
     10000   0.93177827     0.0023323615  -0.0032495427   20.699204      19.315514      1.3836907     -1.2615503      19821.559    
     11000   1.0196846      0.0023323615   0.00053746582  21.122437      19.608205      1.5142317     -1.0387592      19010.754    
     12000   1.0736764      0.0023323615   0.00035831369  21.007785      19.413376      1.5944095     -1.072678       18058.664    
     13000   0.86883018     0.0023323615   0.0020858642   20.373758      19.083545      1.2902128     -1.4160823      16947.746    
     14000   1.0158628      0.0023323615  -0.0014912149   20.493526      18.98497       1.5085563     -1.423038       16533.641    
     15000   0.98176659     0.0023323615  -0.0014921924   20.691251      19.233328      1.4579234     -1.2348637      17485.119    
     16000   0.99629925     0.0023323615   0.00052108529  20.81739       19.337885      1.4795044     -1.1579468      18369.155    
     17000   1.0513054      0.0023323615  -0.0036616614   20.822878      19.261689      1.5611885     -1.3473674      18878.83     
     18000   1.1270303      0.0023323615   0.0009279734   20.855762      19.182122      1.67364       -1.3583156      19774.177    
     19000   1.0445194      0.0023323615  -0.00035121851  21.132665      19.581554      1.5511113     -1.092584       19892.144    
     20000   0.99665343     0.0023323615   0.003076617    20.940047      19.460017      1.4800303     -1.0723189      18917.681    
     21000   0.83292752     0.0023323615  -0.0036983462   20.427544      19.190646      1.2368974     -1.2306524      18340.024    
     22000   1.0705744      0.0023323615  -0.00045436567  20.889816      19.300013      1.5898029     -1.1049922      18912.773    
     23000   0.9804691      0.0023323615   0.0011045087   20.795851      19.339855      1.4559966     -1.1013071      19688.587    
     24000   1.1724951      0.0023323615  -0.0028476889   21.303893      19.562738      1.7411552     -1.0132478      20225.233    
     25000   1.0984078      0.0023323615  -0.003903117    20.832813      19.201677      1.6311356     -1.2545422      19607.45     
     26000   1.0380981      0.0023323615  -0.0057192465   21.205573      19.663998      1.5415757     -0.94662408     20216.512    
     27000   0.93374907     0.0023323615   0.0021652028   20.567069      19.180451      1.3866174     -1.3225683      19511.246    
     28000   0.96016253     0.0023323615   0.0008388834   20.657761      19.23192       1.4258414     -1.1869913      18369.527    
     29000   1.2017616      0.0023323615  -0.001108316    21.068991      19.284375      1.784616      -1.2763307      17647.574    
     30000   0.97573705     0.0023323615  -0.0041324978   20.950497      19.501527      1.4489695     -1.0913621      18239.765    
     31000   1.1842124      0.0023323615  -0.0022033934   21.222793      19.464238      1.7585554     -1.0011914      19664.572    
     32000   0.98824824     0.0023323615  -0.0040452675   20.984247      19.516699      1.4675486     -1.0397784      21375.939    
     33000   1.1405915      0.0023323615  -0.0010829433   20.843835      19.150057      1.6937783     -1.3030639      22096.562    
     34000   0.89933086     0.0023323615   0.00093416757  20.91782       19.582313      1.3355063     -0.99521892     22499.903    
     35000   0.99732632     0.0023323615   0.00067190071  20.889542      19.408513      1.4810296     -1.1556818      21307.326    
     36000   0.96964964     0.0023323615  -0.0035687024   20.942811      19.502882      1.4399297     -1.0724177      20748.175    
     37000   1.137473       0.0023323615   0.0031487464   20.894478      19.205331      1.6891474     -1.29074        19049.951    
     38000   1.2107656      0.0023323615  -0.00062880859  20.969013      19.171026      1.797987      -1.3371583      17193.992    
     39000   0.92033187     0.0023323615   0.0027803341   20.392223      19.025531      1.3666928     -1.3760499      15915.648    
     40000   0.9221391      0.0023323615   0.00035577915  20.822547      19.453171      1.3693766     -1.2130329      16079.947    
     41000   1.0075523      0.0023323615   7.3796687e-05  20.693271      19.197056      1.4962152     -1.2153218      16772.684    
     42000   0.90004695     0.0023323615  -0.0017283759   20.458648      19.122078      1.3365697     -1.330634       18221.793    
     43000   0.96262179     0.0023323615   0.0022101264   20.802882      19.373389      1.4294934     -1.0636205      18669.15     
     44000   1.0333265      0.0023323615  -0.001270723    20.511731      18.977241      1.5344898     -1.4072831      18036.142    
     45000   1.0214018      0.0023323615   0.0033844073   20.630065      19.113284      1.5167817     -1.3543915      16962.3      
     46000   0.92135707     0.0023323615  -0.0023383408   20.646375      19.27816       1.3682153     -1.3222284      16799.112    
     47000   1.0276536      0.0023323615   0.0015618293   20.46392       18.937855      1.5260656     -1.481685       17164.829    
     48000   1.054416       0.0023323615  -0.0039471269   20.654682      19.088874      1.5658077     -1.3352381      17310.912    
     49000   0.93598027     0.0023323615  -0.0017659173   20.671424      19.281493      1.3899307     -1.1993182      17646.984    
     50000   1.0223893      0.0023323615  -0.00012894271  20.734628      19.21638       1.5182481     -1.235199       18763.896    
     51000   0.98115301     0.0023323615   0.0009294717   20.587464      19.130452      1.4570122     -1.3239723      19592.429    
     52000   0.98483416     0.0023323615   0.0019050458   20.545507      19.083029      1.4624787     -1.4557269      19681.668    
     53000   1.0073023      0.0023323615  -0.0024840592   20.727242      19.231398      1.4958439     -1.2703276      18115.514    
     54000   1.0289648      0.0023323615   0.0031772068   20.375366      18.847354      1.5280127     -1.5379183      16735.419    
     55000   0.84032271     0.0023323615   0.0001155699   20.336321      19.088442      1.2478792     -1.4274988      16504.568    
     56000   0.88306965     0.0023323615   0.0029072579   20.615019      19.303661      1.3113584     -1.2976068      16877.445    
     57000   0.96114964     0.0023323615   0.0014321272   20.673144      19.245837      1.4273072     -1.3437123      18237.988    
     58000   0.89926956     0.0023323615  -0.0035178445   20.48278       19.147365      1.3354153     -1.3709065      18528.233    
     59000   1.0480861      0.0023323615  -0.001987314    20.946978      19.39057       1.5564079     -1.276493       19457.134    
     60000   1.1024447      0.0023323615  -0.0010670684   20.8529        19.215769      1.6371304     -1.3037212      18958.169    
     61000   0.98209281     0.0023323615  -0.0021057193   20.372545      18.914137      1.4584078     -1.4670168      17572.182    
     62000   0.98876066     0.0023323615   2.3284139e-05  20.536695      19.068385      1.4683096     -1.4265589      15892.286    
     63000   0.95280575     0.0023323615  -0.0052326291   20.608749      19.193832      1.4149165     -1.4490798      15331.91     
     64000   1.068179       0.0023323615  -0.0014167862   20.867916      19.28167       1.5862457     -1.2515906      15881.671    
     65000   1.0075628      0.0023323615  -0.0020780476   20.608388      19.112157      1.4962307     -1.4797429      17050.488    
     66000   1.0673928      0.0023323615  -0.00032692196  20.784443      19.199365      1.5850783     -1.2849981      17841.756    
     67000   0.92905473     0.0023323615  -0.00084342212  20.301047      18.921401      1.3796463     -1.5235361      18622.635    
     68000   0.94369269     0.0023323615  -0.001153673    20.460789      19.059405      1.4013836     -1.3689485      17368.532    
     69000   1.0452397      0.0023323615   0.00066948034  20.906763      19.354582      1.552181      -1.2437022      16664.304    
     70000   0.89428056     0.0023323615   0.0016241623   20.58182       19.253813      1.3280066     -1.3276934      17142.377    
     71000   0.92531747     0.0023323615  -0.0016166513   20.468433      19.094336      1.3740964     -1.4138715      17326.162    
     72000   0.9453983      0.0023323615   0.0035441015   20.548337      19.14442       1.4039165     -1.2991413      16809.68     
     73000   0.95498472     0.0023323615   0.0063452469   20.561605      19.143453      1.4181523     -1.3345933      18207.909    
     74000   0.94259488     0.0023323615  -0.0044426718   20.804411      19.404657      1.3997534     -1.1414552      18849.697    
     75000   0.96731198     0.0023323615   0.00078345401  20.698805      19.262347      1.4364583     -1.2652133      19044.358    
     76000   0.99112014     0.0023323615  -5.9106041e-05  20.827258      19.355445      1.4718134     -1.3252924      18972.598    
     77000   1.083302       0.0023323615   0.0011116432   20.611042      19.002339      1.6087035     -1.473042       17345.812    
     78000   0.86795696     0.0023323615   0.0017627717   20.341827      19.052911      1.2889161     -1.3684393      15975.604    
     79000   0.96495081     0.0023323615  -0.0025692999   20.562416      19.129465      1.4329519     -1.2803129      16792.496    
     80000   0.96671266     0.0023323615   7.6087552e-05  20.713313      19.277744      1.4355683     -1.2941912      18472.23     
     81000   0.83732959     0.0023323615   0.0012260811   20.565388      19.321954      1.2434344     -1.1872883      18535.417    
     82000   1.055911       0.0023323615  -0.0027336847   20.791486      19.223458      1.5680278     -1.3046804      17513.179    
     83000   1.0505108      0.0023323615   0.0029146637   20.87153       19.311521      1.5600086     -1.2640084      16859.174    
     84000   1.0544053      0.0023323615  -0.00072904759  20.767688      19.201896      1.5657919     -1.2184665      16844.249    
     85000   1.029851       0.0023323615  -0.00069253243  20.658953      19.129625      1.5293288     -1.3154186      16348.695    
     86000   0.90014182     0.0023323615  -0.00065189137  20.513267      19.176556      1.3367106     -1.1817144      16162.048    
     87000   1.0865506      0.0023323615   0.001177057    20.856862      19.243334      1.6135277     -1.075043       17401.395    
     88000   0.87045648     0.0023323615  -0.00092184985  20.514678      19.22205       1.2926279     -1.2324845      18879.808    
     89000   1.0852669      0.0023323615   0.0022391942   21.153998      19.542377      1.6116213     -1.1250384      19708.876    
     90000   1.0672357      0.0023323615  -0.00071231201  20.852146      19.267301      1.584845      -1.1826199      19624.44     
     91000   1.0540385      0.0023323615  -0.00010153525  20.894179      19.328932      1.5652472     -1.2239192      20112.745    
     92000   1.1104937      0.0023323615  -0.0026037448   20.842075      19.192992      1.6490831     -1.2452005      20152.322    
     93000   1.0972749      0.0023323615   0.0010780888   20.735754      19.106301      1.6294532     -1.2624553      19110.38     
     94000   0.91318989     0.0023323615   0.0017989496   20.587093      19.231006      1.356087      -1.2711928      17629.729    
     95000   1.0145244      0.0023323615  -0.002145712    20.687057      19.180488      1.5065688     -1.2182904      17013.447    
     96000   0.95518828     0.0023323615   0.0011522015   20.598999      19.180544      1.4184546     -1.306953       17029.244    
     97000   0.97861469     0.0023323615   0.0012495785   20.394884      18.941641      1.4532428     -1.4577119      17502.369    
     98000   1.0016693      0.0023323615   0.003293692    20.793912      19.306433      1.487479      -1.2352349      18414.394    
     99000   1.1130876      0.0023323615   0.00024534926  20.683064      19.030128      1.6529351     -1.4110635      19938.915    
    100000   0.92910434     0.0023323615  -0.0021072749   20.657534      19.277814      1.3797199     -1.2102768      19705.402    
    101000   0.97937178     0.0023323615   0.0018009954   20.650121      19.195754      1.4543671     -1.2453524      19344.555    
    102000   1.0147078      0.0023323615  -0.00069097545  20.764015      19.257174      1.5068411     -1.1272199      18888.286    
    103000   1.1572963      0.0023323615  -0.0060014786   21.238103      19.519518      1.718585      -1.1369226      19421.64     
    104000   1.0104905      0.0023323615   0.0018363637   20.867267      19.366689      1.5005784     -1.2325629      19901.977    
    105000   0.99221147     0.0023323615  -0.00098710986  20.788243      19.314809      1.473434      -1.1485492      19326.931    
    106000   1.0396978      0.0023323615   0.0068739798   20.568327      19.024376      1.5439512     -1.3325418      17511.381    
    107000   0.86719976     0.0023323615  -0.00023825674  20.473606      19.185814      1.2877916     -1.1963918      16260.796    
    108000   0.96366746     0.0023323615  -0.00094506592  20.59825       19.167204      1.4310462     -1.3968415      15503.118    
    109000   1.0925247      0.0023323615   0.001051562    20.576081      18.953681      1.6223992     -1.4249378      15946.772    
    110000   1.1209227      0.0023323615  -0.0037512626   20.888546      19.223976      1.6645702     -1.2096714      17740.993    
    111000   1.1309324      0.0023323615  -0.00093531041  20.795823      19.116388      1.6794345     -1.423375       18799.152    
    112000   0.94707242     0.0023323615   0.0029244774   20.474027      19.067625      1.4064025     -1.3533543      18424.024    
    113000   0.89569735     0.0023323615  -0.00040700078  20.386946      19.056836      1.3301106     -1.3525572      15821.684    
    114000   0.94584344     0.0023323615  -1.5192923e-05  20.733412      19.328834      1.4045775     -1.2014744      14967.21     
    115000   1.1037143      0.0023323615  -0.0022357865   20.931278      19.292262      1.6390158     -1.0532461      16845.377    
    116000   0.94024497     0.0023323615  -0.0032374811   20.269223      18.872959      1.3962638     -1.4593371      18987.963    
    117000   0.89288343     0.0023323615  -0.00021246355  20.529495      19.203563      1.3259319     -1.2408725      20434.203    
    118000   1.0670807      0.0023323615  -0.0039092061   20.990139      19.405524      1.5846148     -1.093441       20776.222    
    119000   0.92297825     0.0023323615   0.00056622292  20.912569      19.541946      1.3706227     -1.149806       21070.204    
    120000   0.87751083     0.0023323615  -0.00062163369  20.716313      19.413209      1.3031036     -1.113843       19965.437    
    121000   1.0039827      0.0023323615  -0.0017840108   20.978034      19.48712       1.4909144     -1.0365581      18810.812    
    122000   1.0330879      0.0023323615   0.0026008265   21.010932      19.476797      1.5341356     -1.1138055      17415.453    
    123000   1.1477464      0.0023323615   0.0025628236   21.135572      19.431169      1.7044034     -1.1536993      17056.823    
    124000   0.96163945     0.0023323615   0.0022875568   20.771816      19.343781      1.4280346     -1.1935516      17341.928    
    125000   1.140112       0.0023323615   0.00086722539  20.863815      19.170749      1.6930663     -1.2407886      17979.147    
    126000   0.98266988     0.0023323615  -0.0020014968   20.62897       19.169706      1.4592648     -1.2705075      18612.62     
    127000   0.90976485     0.0023323615   0.0022744649   20.516087      19.165086      1.3510008     -1.2049589      17476.849    
    128000   1.0131986      0.0023323615   0.00086060155  20.564789      19.060189      1.5045999     -1.4562148      16971.044    
    129000   1.0862541      0.0023323615  -0.0019530631   20.959353      19.346266      1.6130874     -1.2613216      16999.397    
    130000   1.005738       0.0023323615  -0.00039200312  20.641976      19.148455      1.4935209     -1.3387983      17921.167    
    131000   0.99567108     0.0023323615  -0.00029002023  20.507755      19.029184      1.4785716     -1.4743419      18565.674    
    132000   0.86908804     0.0023323615  -2.5132933e-05  20.512463      19.221868      1.2905957     -1.3201603      18237.005    
    133000   0.93752874     0.0023323615  -0.0026703128   20.530571      19.138341      1.3922302     -1.3160478      18781.699    
    134000   1.0790226      0.0023323615  -0.0034590169   21.005686      19.403337      1.6023486     -1.0815096      19172.973    
    135000   1.0611824      0.0023323615   0.0036877459   20.774372      19.198516      1.5758559     -1.3245293      18036.937    
    136000   0.95650798     0.0023323615   0.0043461244   20.625617      19.205202      1.4204144     -1.2550296      17162.438    
    137000   1.0122808      0.0023323615   0.0017944918   20.756538      19.253301      1.503237      -1.1916226      17103.228    
    138000   0.9886742      0.0023323615   0.0037025204   20.632823      19.164642      1.4681812     -1.3321284      18382.847    
    139000   1.1244176      0.0023323615  -0.00082219842  20.947451      19.277691      1.6697602     -1.3147685      19456.731    
    140000   0.93158262     0.0023323615  -0.0023647112   20.668021      19.284621      1.3834002     -1.2144639      20968.775    
    141000   0.81242893     0.0023323615  -0.004175462    20.702687      19.49623       1.206457      -1.1201339      21385.932    
    142000   0.94642342     0.0023323615  -0.0013051599   20.8579        19.452461      1.4054388     -1.1422687      21707.517    
    143000   1.0338307      0.0023323615   0.0010035998   20.897572      19.362333      1.5352386     -1.1150319      21255.381    
    144000   1.1508296      0.0023323615   0.0013334625   21.003603      19.294621      1.7089819     -1.2706687      19960.83     
    145000   1.0606029      0.0023323615  -0.00067597983  20.93725       19.362255      1.5749953     -1.2438978      18961.108    
    146000   1.0329124      0.0023323615  -0.0016992636   20.645843      19.111968      1.533875      -1.3224554      17085.474    
    147000   1.1536018      0.0023323615  -0.0035679924   20.778404      19.065305      1.7130986     -1.4013152      16091.413    
    148000   0.89540501     0.0023323615  -0.0032652508   20.48196       19.152283      1.3296764     -1.3585684      16202.017    
    149000   0.95830692     0.0023323615   0.00085048104  20.422504      18.999419      1.4230858     -1.4268573      17870.573    
    150000   1.0009039      0.0023323615  -0.00070488686  20.830873      19.344531      1.4863423     -1.1251873      19809.522    
    151000   0.89875743     0.0023323615   0.0012907331   20.809374      19.474719      1.3346548     -1.0331544      21197.807    
    152000   1.0366114      0.0023323615   0.00099430907  20.80926       19.269892      1.5393679     -1.1792333      20717.014    
    153000   1.0489996      0.0023323615   0.0032696017   20.782397      19.224633      1.5577643     -1.205096       20527.001    
    154000   0.97107265     0.0023323615  -0.0045263634   20.713885      19.271842      1.4420429     -1.1719589      18842.477    
    155000   0.9560052      0.0023323615   0.0011997839   20.312052      18.892384      1.4196677     -1.5308983      15841.223    
    156000   0.96377742     0.0023323615  -0.0013252678   20.348317      18.917107      1.4312095     -1.5792369      14517.336    
    157000   1.0910294      0.0023323615  -0.0012873382   20.659313      19.039134      1.6201786     -1.360567       14645.566    
    158000   0.9114195      0.0023323615  -0.0029605377   20.581865      19.228407      1.353458      -1.2598031      16365.438    
    159000   0.84771836     0.0023323615  -0.0017319687   20.291424      19.032562      1.2588618     -1.3710093      18432.642    
    160000   1.0440359      0.0023323615   0.0044103614   20.819759      19.269366      1.5503933     -1.2075935      18747.853    
    161000   0.99233942     0.0023323615   0.00054986862  20.809433      19.335809      1.473624      -1.3357579      18077.294    
    162000   1.041093       0.0023323615  -0.0022516264   20.686482      19.140459      1.5460231     -1.3127431      17103.98     
    163000   0.98267002     0.0023323615  -0.0040528931   20.744394      19.285129      1.459265      -1.208183       16387.584    
    164000   1.1236083      0.0023323615  -0.0010142346   21.136039      19.467481      1.6685583     -0.99022744     16822.383    
    165000   0.96278466     0.0023323615   0.0013420085   20.589444      19.159708      1.4297352     -1.3021771      18373.233    
    166000   0.86704771     0.0023323615   0.0010591366   20.496633      19.209067      1.2875658     -1.2997895      18185.066    
    167000   0.96958519     0.0023323615  -0.00040538831  20.649618      19.209784      1.439834      -1.2215944      18064.269    
    168000   1.1132609      0.0023323615  -0.00086486516  20.593523      18.940331      1.6531924     -1.4770895      17020.16     
    169000   0.89387787     0.0023323615  -0.0034771983   20.20141       18.874002      1.3274086     -1.614205       15365.388    
    170000   0.91470054     0.0023323615  -0.0034018083   20.603194      19.244864      1.3583303     -1.365597       15083.126    
    171000   1.0043328      0.0023323615  -0.0011651186   20.799996      19.308562      1.4914342     -1.3492412      16403.853    
    172000   0.99522441     0.0023323615   0.00016849417  20.719626      19.241717      1.4779083     -1.3639413      17276.538    
    173000   1.0560418      0.0023323615   0.0027343935   20.994226      19.426004      1.5682221     -1.1623307      18305.232    
    174000   0.85909173     0.0023323615  -0.0013796055   20.446706      19.170955      1.2757512     -1.1633026      18774.308    
    175000   1.0606866      0.0023323615   0.001131544    20.829782      19.254663      1.5751196     -1.2567831      18996.361    
    176000   0.99392441     0.0023323615   0.0027629855   20.81028       19.334302      1.4759777     -1.1874981      19181.33     
    177000   1.0749247      0.0023323615  -0.00094886582  20.693631      19.097367      1.5962631     -1.2398391      18376.535    
    178000   1.043971       0.0023323615  -3.8999209e-05  20.77711       19.226813      1.5502969     -1.2880324      16618.98     
    179000   1.0636657      0.0023323615  -0.0001412343   20.699309      19.119765      1.5795436     -1.2903992      15805.782    
    180000   1.0541874      0.0023323615   0.0033670207   20.640319      19.074851      1.5654684     -1.4053929      14844.364    
    181000   1.0317751      0.0023323615  -0.00026468158  20.345197      18.813011      1.5321861     -1.531339       14679.933    
    182000   0.85437721     0.0023323615   5.0022459e-05  20.3752        19.10645       1.2687502     -1.294528       15981.408    
    183000   1.0030457      0.0023323615  -0.0015775602   20.675904      19.186381      1.4895229     -1.2974465      16849.356    
    184000   0.93853206     0.0023323615  -0.0028038404   20.71249       19.31877       1.3937201     -1.2571073      17743.942    
    185000   1.1435258      0.0023323615   0.0016243211   20.965717      19.267581      1.6981358     -1.3136803      19149.498    
    186000   0.98227673     0.0023323615  -0.00047402941  20.805513      19.346832      1.4586809     -1.1320638      20063.543    
    187000   1.1249273      0.0023323615  -8.9355033e-06  20.968892      19.298375      1.670517      -1.2523826      20131.491    
    188000   0.87819162     0.0023323615  -0.0063494919   20.585702      19.281587      1.3041146     -1.3232843      20566.615    
    189000   1.0263243      0.0023323615   0.0037541805   20.930075      19.405984      1.5240916     -1.2142621      20369.977    
    190000   1.3226338      0.0023323615  -0.00043097803  21.395198      19.431086      1.9641111     -1.0335541      20589.746    
    191000   0.96800028     0.0023323615  -0.0029653415   20.897204      19.459723      1.4374804     -1.0891125      19812.986    
    192000   1.0700655      0.0023323615  -0.00053400948  20.911978      19.32293       1.5890472     -1.1201123      19692.184    
    193000   1.0286378      0.0023323615  -0.0037226016   20.806871      19.279344      1.5275271     -1.2334739      18763.65     
    194000   1.1066892      0.0023323615  -0.0038374738   20.971189      19.327756      1.6434334     -1.2719839      18023.235    
    195000   0.98454255     0.0023323615  -0.00033402617  20.812178      19.350132      1.4620457     -1.186882       16224.147    
    196000   0.95983911     0.0023323615  -0.00044358396  20.537143      19.111782      1.4253611     -1.4575967      15895.369    
    197000   0.99298827     0.0023323615  -0.0012620273   20.766893      19.292305      1.4745876     -1.2119921      16632.957    
    198000   0.98381951     0.0023323615   0.0017579511   20.836051      19.375079      1.460972      -1.205657       18183.972    
    199000   0.92868499     0.0023323615   0.00099345959  20.813522      19.434425      1.3790972     -1.1597774      19464.764    
    200000   1.1036587      0.0023323615   0.0055167645   21.043153      19.404219      1.6389332     -1.1966167      19855.92     
    201000   1.0231058      0.0023323615   0.00045528538  21.0249        19.505588      1.519312      -1.1228116      19616.927    
    202000   1.1152871      0.0023323615   0.00038143382  20.952173      19.295972      1.6562014     -1.2705119      18201.627    
    203000   0.89062519     0.0023323615   0.0020057748   20.460938      19.13836       1.3225784     -1.3340597      17032.707    
    204000   1.0066362      0.0023323615  -0.00071618822  20.67097       19.176116      1.4948548     -1.3459849      16387.116    
    205000   1.0701782      0.0023323615  -0.0018035533   20.47621       18.886996      1.5892146     -1.544885       16151.72     
    206000   0.97083917     0.0023323615   0.0015050362   20.608559      19.166863      1.4416962     -1.3341839      16582.826    
    207000   0.97049839     0.0023323615   0.001590759    20.816298      19.375107      1.4411901     -1.0938023      17662.68     
    208000   0.95907823     0.0023323615   0.0024832348   20.693695      19.269464      1.4242312     -1.1762297      18403.746    
    209000   0.96833279     0.0023323615  -0.0024895377   20.847576      19.409602      1.4379742     -1.0371195      18920.754    
    210000   1.0223318      0.0023323615   0.0053963282   20.994622      19.47646       1.5181627     -0.99012139     19714.038    
    211000   0.98684431     0.0023323615   0.0029190938   20.903692      19.438228      1.4654638     -1.0178296      20839.223    
    212000   1.1098249      0.0023323615   9.9990728e-05  20.998704      19.350614      1.64809       -1.1203543      21292.139    
    213000   1.0264029      0.0023323615  -0.001531811    21.058552      19.534343      1.5242083     -1.1108163      20275.484    
    214000   0.96922305     0.0023323615   0.0014460624   20.726177      19.286881      1.4392962     -1.2435771      18726.242    
    215000   1.0433785      0.0023323615  -0.00070730681  20.729241      19.179824      1.5494171     -1.298735       17264.041    
    216000   0.93823211     0.0023323615  -0.00029106993  20.531973      19.138698      1.3932747     -1.3381465      16215.844    
    217000   1.0961002      0.0023323615  -0.00071592054  21.103776      19.476067      1.6277088     -1.023679       16499.436    
    218000   1.0195404      0.0023323615   0.0029506816   20.978667      19.464649      1.5140176     -0.92808673     17548.628    
    219000   1.0987318      0.0023323615   0.0020912232   21.017237      19.38562       1.6316168     -1.1315022      19056.36     
    220000   1.089086       0.0023323615   0.00096413675  20.957052      19.33976       1.6172927     -1.0847208      20412.205    
    221000   1.0309785      0.0023323615  -0.00030783402  20.899093      19.36809       1.5310031     -1.2063433      21035.465    
    222000   0.9886918      0.0023323615   0.0019489664   20.924873      19.456666      1.4682073     -1.0852738      21462.692    
    223000   0.95013415     0.0023323615   0.0019686528   20.740241      19.329291      1.4109492     -1.1976397      20802.323    
    224000   0.94587789     0.0023323615   0.0033832809   20.657445      19.252816      1.4046287     -1.2602226      18938.899    
    225000   1.0326528      0.0023323615   0.0022455137   20.685003      19.151513      1.5334895     -1.3338262      15955.549    
    226000   1.1989593      0.0023323615   0.0024379937   20.652538      18.872084      1.7804546     -1.5305143      14430.56     
    227000   0.97517008     0.0023323615   0.0046412207   20.549077      19.100949      1.4481276     -1.3548906      15422.22     
    228000   0.95949942     0.0023323615  -0.0010941581   20.894301      19.469444      1.4248566     -1.0247035      18378.294    
    229000   0.95908531     0.0023323615  -0.0033856385   20.806033      19.381792      1.4242417     -1.1336976      20098.445    
    230000   1.0576929      0.0023323615  -0.0025857429   20.87287       19.302196      1.570674      -1.1721618      20884.698    
    231000   0.97583254     0.0023323615  -0.0022138711   20.759102      19.309991      1.4491113     -1.1940756      20850.332    
    232000   1.0444367      0.0023323615   0.00037942279  20.731276      19.180288      1.5509885     -1.3190037      20578.374    
    233000   1.1255246      0.0023323615   0.00070442094  20.91476       19.243356      1.671404      -1.2958958      18924.671    
    234000   0.89666937     0.0023323615   0.0035109433   20.754866      19.423312      1.331554      -1.0875092      17935.997    
    235000   1.0473924      0.0023323615  -0.0013957688   20.892475      19.337098      1.5553777     -1.1874516      17956.209    
    236000   1.0966202      0.0023323615  -0.0010571735   21.069415      19.440934      1.628481      -1.0710798      18317.957    
    237000   0.931126       0.0023323615  -0.0039664086   20.897864      19.515142      1.3827221     -1.1511472      18738.92     
    238000   1.042969       0.0023323615   0.0025557446   20.892111      19.343302      1.548809      -1.167843       18643.23     
    239000   0.9708397      0.0023323615  -0.0025876798   20.564134      19.122437      1.4416969     -1.2197376      19158.79     
    240000   0.96484741     0.0023323615  -9.4683811e-05  20.919997      19.487199      1.4327984     -1.0704906      19636.018    
    241000   1.0866017      0.0023323615   5.5431841e-06  21.148094      19.53449       1.6136035     -0.9941787      20642.689    
    242000   1.0658775      0.0023323615   0.0028544927   20.978107      19.395279      1.5828281     -1.08994        19503.235    
    243000   1.2184946      0.0023323615  -0.00050975039  21.041569      19.232104      1.8094645     -1.2936211      18775.174    
    244000   1.0375642      0.0023323615  -0.0016038177   20.895266      19.354483      1.5407828     -1.1841611      20022.859    
    245000   1.0181547      0.0023323615   0.0012281518   20.839369      19.327409      1.5119597     -1.0532737      20866.016    
    246000   0.92967864     0.0023323615   0.0011025089   20.635114      19.254541      1.3805728     -1.2494415      21543.943    
    247000   1.1319949      0.0023323615  -0.0038581275   20.993614      19.312602      1.6810125     -1.1661333      20356.438    
    248000   1.090043       0.0023323615  -0.0011115683   20.979862      19.361148      1.6187138     -1.148834       16898.458    
    249000   1.0183393      0.0023323615  -0.0041608769   20.766129      19.253895      1.5122338     -1.3153011      15011.316    
    250000   1.0610462      0.0023323615   0.00032162758  20.889293      19.313639      1.5756537     -1.1242549      15363.858    
    251000   0.93239757     0.0023323615  -0.0024056194   20.554217      19.169606      1.3846104     -1.3237152      17491.706    
    252000   1.0185229      0.0023323615   8.7157165e-05  20.859022      19.346516      1.5125065     -1.2008318      18954.14     
    253000   1.0323023      0.0023323615  -0.0022434543   20.869168      19.336199      1.5329689     -1.1061347      20115.684    
    254000   0.90411912     0.0023323615  -0.00050246082  20.654051      19.311434      1.3426169     -1.1632738      21556.562    
    255000   1.030832       0.0023323615   0.0014364365   20.706823      19.176038      1.5307855     -1.2501861      21903.066    
    256000   1.097932       0.0023323615   0.002380757    20.808646      19.178217      1.630429      -1.3343716      21814.134    
    257000   0.99195744     0.0023323615   0.0019560389   20.729913      19.256856      1.4730568     -1.2632853      20595.948    
    258000   1.0593342      0.0023323615   0.00051100425  20.872495      19.299383      1.5731112     -1.1348916      18092.216    
    259000   0.96988957     0.0023323615   0.0016689025   20.663071      19.222785      1.440286      -1.2770407      16550.74     
    260000   0.93304397     0.0023323615  -0.0017566151   20.581438      19.195867      1.3855703     -1.3384652      16338.611    
    261000   1.0334268      0.0023323615   0.0036459688   20.459842      18.925203      1.5346388     -1.48543        17698.392    
    262000   0.9174889      0.0023323615   0.00060612263  20.460441      19.09797       1.362471      -1.2754799      18508.865    
    263000   0.96324561     0.0023323615  -0.0027799311   20.553517      19.123098      1.4304197     -1.301021       17496.938    
    264000   1.0534074      0.0023323615   0.0013468398   20.549338      18.985028      1.5643099     -1.4277271      17154.108    
    265000   0.89339298     0.0023323615   0.0018858698   20.174782      18.848093      1.3266886     -1.5786376      17327.54     
    266000   1.0117356      0.0023323615   0.0032310565   20.423115      18.920688      1.5024274     -1.5414069      17868.829    
    267000   0.98792817     0.0023323615   0.0001981005   20.684654      19.21758       1.4670733     -1.3739088      17511.092    
    268000   1.0464491      0.0023323615   0.0027094536   20.853596      19.299619      1.553977      -1.2671271      16085.454    
    269000   0.99486335     0.0023323615  -0.0007870305   20.659109      19.181737      1.4773721     -1.3715913      14900.387    
    270000   1.0787617      0.0023323615  -0.00030060202  20.660482      19.058521      1.6019611     -1.3618073      15190.658    
    271000   1.0737853      0.0023323615  -0.00013168853  20.838384      19.243813      1.5945711     -1.2739963      15945.157    
    272000   0.98453677     0.0023323615   0.0015222463   20.556806      19.094769      1.4620371     -1.4631538      15396.24     
    273000   1.0962048      0.0023323615   0.0009050255   20.611443      18.983579      1.6278641     -1.4620546      15101.631    
    274000   0.98190744     0.0023323615   0.0014045931   20.468427      19.010295      1.4581325     -1.5041229      15573.103    
    275000   1.0474486      0.0023323615  -0.00093895859  20.505928      18.950467      1.5554612     -1.4875331      15007.245    
    276000   0.85142683     0.0023323615  -0.0035751107   20.374818      19.110449      1.2643688     -1.4574838      16201.893    
    277000   0.90414605     0.0023323615   0.0013480356   20.25514       18.912484      1.3426569     -1.5587113      18173.655    
    278000   1.0378723      0.0023323615   0.00071382257  20.69362       19.15238       1.5412404     -1.3676675      19367.993    
    279000   0.95409132     0.0023323615   0.0025952746   20.801061      19.384235      1.4168256     -1.1983168      19992.732    
    280000   0.96008613     0.0023323615   0.0032096396   20.664246      19.238518      1.4257279     -1.2650769      20149.193    
    281000   0.96182886     0.0023323615   0.00073101944  20.578166      19.14985       1.4283159     -1.332976       19224.726    
    282000   1.1025384      0.0023323615  -0.0030908425   20.818397      19.181127      1.6372695     -1.3158894      17656.121    
    283000   1.0887428      0.0023323615  -0.0020591571   20.7468        19.130017      1.6167831     -1.4006766      16357.304    
    284000   1.0090316      0.0023323615  -0.0031541454   20.639882      19.14147       1.4984119     -1.4233294      15797.119    
    285000   0.93125536     0.0023323615  -0.0063771454   20.418034      19.03512       1.3829142     -1.4505122      16409.371    
    286000   0.96725377     0.0023323615  -0.00057789493  20.546352      19.10998       1.4363718     -1.3549529      16971.431    
    287000   1.1323581      0.0023323615  -0.0018773423   20.849436      19.167884      1.6815518     -1.3800226      17860.279    
    288000   1.0304226      0.0023323615  -0.0028775252   20.71725       19.187072      1.5301776     -1.2301547      18596.231    
    289000   0.90556266     0.0023323615   0.0043822255   20.547715      19.202954      1.3447606     -1.184985       18347.906    
    290000   1.0126587      0.0023323615  -0.0024080109   20.648352      19.144554      1.5037982     -1.2693253      16683.255    
    291000   0.99197322     0.0023323615  -0.0010103439   20.732113      19.259032      1.4730802     -1.3243624      16149.295    
    292000   0.97477317     0.0023323615   0.00041211082  20.653815      19.206277      1.4475382     -1.250005       16984.791    
    293000   0.98116674     0.0023323615  -0.00040601534  20.659765      19.202733      1.4570326     -1.222315       18456.886    
    294000   1.0411831      0.0023323615   0.0029304113   20.790674      19.244517      1.5461569     -1.2960178      19640.184    
    295000   0.95001014     0.0023323615   0.00094765239  20.501927      19.091162      1.4107651     -1.3718027      19020.34     
    296000   0.92697609     0.0023323615  -0.003323398    20.793114      19.416555      1.3765595     -1.1378907      18923.911    
    297000   0.91821456     0.0023323615  -0.0014482185   20.776753      19.413205      1.3635486     -1.0954314      18934.857    
    298000   0.98455595     0.0023323615   0.0031132008   20.756543      19.294477      1.4620656     -1.2473083      19730.012    
    299000   0.91324912     0.0023323615   0.00032639241  20.725143      19.368968      1.356175      -1.1462198      19152.062    
    300000   0.88621972     0.0023323615  -0.0010095112   20.785136      19.4691        1.3160363     -0.96795882     19438.619    
    301000   0.99694593     0.0023323615  -0.00043215065  20.742581      19.262116      1.4804647     -1.2186638      18551.547    
    302000   0.91439487     0.0023323615  -0.00092017347  20.685711      19.327835      1.3578764     -1.124502       18792.714    
    303000   0.90893686     0.0023323615   0.0030562985   20.840244      19.490473      1.3497712     -1.0620683      18824.502    
    304000   1.076949       0.0023323615  -0.0024875665   20.92076       19.321491      1.5992692     -1.1451679      19456.747    
    305000   1.0196956      0.0023323615  -0.002760482    20.807862      19.293614      1.514248      -1.2442128      19117.789    
    306000   1.0929262      0.0023323615   0.00098843573  20.960247      19.337251      1.6229954     -1.2271573      18496.788    
    307000   0.99659593     0.0023323615  -4.7683269e-05  20.547358      19.067413      1.479945      -1.3044303      18698.689    
    308000   1.065879       0.0023323615  -0.0039146829   21.024112      19.441281      1.5828302     -1.0126713      19505.634    
    309000   1.0119787      0.0023323615  -0.0031347286   20.959395      19.456607      1.5027884     -1.1160075      19537.342    
    310000   0.87173243     0.0023323615  -0.00037214143  20.674187      19.379664      1.2945227     -1.1266513      19370.767    
    311000   0.95054309     0.0023323615   0.0030008134   20.597472      19.185915      1.4115565     -1.280197       19963.661    
    312000   0.95634838     0.0023323615  -0.0011153388   20.72711       19.306933      1.4201773     -1.1264194      20109.584    
    313000   1.0148276      0.0023323615  -0.0040224336   20.673614      19.166595      1.507019      -1.3260748      20918.409    
    314000   0.97826023     0.0023323615  -0.0015289229   20.920103      19.467387      1.4527164     -1.0196196      21062.6      
    315000   0.90530483     0.0023323615  -0.0013501293   20.513756      19.169379      1.3443777     -1.1356329      19957.773    
    316000   0.99714522     0.0023323615   0.0015525478   20.75233       19.271569      1.4807607     -1.1936101      18821.713    
    317000   0.9721669      0.0023323615   9.917646e-05   20.661622      19.217954      1.4436678     -1.355232       18510.437    
    318000   1.0789889      0.0023323615   0.00027693014  20.793858      19.191559      1.6022986     -1.327911       19079.162    
    319000   1.0421402      0.0023323615  -0.0011004624   20.886758      19.33918       1.5475782     -1.1478469      19552.851    
    320000   0.94880767     0.0023323615  -0.00011653802  20.779103      19.370123      1.4089794     -1.3362464      19256.017    
    321000   0.99073529     0.0023323615   0.0035852064   20.691614      19.220372      1.4712419     -1.3073311      19171.261    
    322000   0.95742883     0.0023323615  -0.00067144992  20.740082      19.3183        1.4217818     -1.2366349      18615.758    
    323000   1.0041626      0.0023323615   5.0546755e-05  20.746275      19.255094      1.4911814     -1.2689987      18074.076    
    324000   1.1516088      0.0023323615  -0.0024147253   21.06177       19.351631      1.7101391     -1.259414       17551.575    
    325000   1.0650333      0.0023323615   0.0011327194   21.009415      19.42784       1.5815744     -1.0784873      18243.465    
    326000   1.123751       0.0023323615   0.0010909451   20.90178       19.23301       1.6687702     -1.2257556      18984.839    
    327000   1.0421983      0.0023323615  -0.0043449651   20.713599      19.165935      1.5476644     -1.3807336      20118.181    
    328000   1.0128368      0.0023323615   0.00062050468  20.95061       19.446547      1.5040626     -1.078672       19980.477    
    329000   1.0550784      0.0023323615   0.0021802206   21.036731      19.469939      1.5667915     -0.9627072      19530.293    
    330000   1.111056       0.0023323615   0.0010886886   20.761902      19.111984      1.6499182     -1.2783004      20173.147    
    331000   1.0530256      0.0023323615  -0.0045847729   20.657847      19.094104      1.5637431     -1.4559402      20673.324    
    332000   1.0668823      0.0023323615   0.00051956081  20.78352       19.1992        1.5843203     -1.2860296      19440.668    
    333000   1.0973429      0.0023323615   7.4893958e-05  20.828695      19.199141      1.6295542     -1.2460564      17469.994    
    334000   1.0502336      0.0023323615  -0.0012262789   21.0044        19.444803      1.5595968     -1.043335       16443.937    
    335000   0.86651171     0.0023323615  -0.0015109957   20.561366      19.274596      1.2867699     -1.1407541      16835.711    
    336000   1.0576691      0.0023323615   0.0046965201   20.992045      19.421406      1.5706387     -1.0717791      18493.258    
    337000   1.0224094      0.0023323615   0.0025978023   20.886462      19.368184      1.5182779     -1.1259145      19267.269    
    338000   1.0320053      0.0023323615  -0.0010313521   21.016205      19.483677      1.5325279     -1.1972545      20015.183    
    339000   1.0987964      0.0023323615   0.0062563016   20.97359       19.341878      1.6317127     -1.1318653      19741.113    
    340000   0.97795611     0.0023323615   0.0022020158   20.819306      19.367041      1.4522648     -1.1561263      19700.746    
    341000   0.95924682     0.0023323615   0.00055492794  20.848217      19.423735      1.4244815     -1.12205        18956.354    
    342000   0.93695326     0.0023323615   0.0012089915   20.535469      19.144094      1.3913756     -1.2899454      18435.322    
    343000   1.056209       0.0023323615  -0.0030284949   21.101996      19.533526      1.5684704     -1.1275126      16505.111    
    344000   1.1323236      0.0023323615   7.8993115e-05  20.987008      19.305508      1.6815006     -1.2170257      15434.965    
    345000   0.99136438     0.0023323615  -0.0025021549   20.562186      19.090009      1.4721761     -1.4280967      15669.733    
    346000   0.92236153     0.0023323615   0.0023669434   20.391925      19.022218      1.3697069     -1.4552996      16379.999    
    347000   1.0133526      0.0023323615  -0.00046651596  20.462367      18.957538      1.5048286     -1.4736216      17570.728    
    348000   1.0063989      0.0023323615   0.00072033439  20.700569      19.206067      1.4945024     -1.3376722      18860.593    
    349000   1.162279       0.0023323615   2.1902804e-05  21.19078       19.464796      1.7259843     -1.0475367      18898.059    
    350000   0.85601895     0.0023323615   0.0028634325   20.393468      19.12228       1.2711881     -1.3348896      17083.635    
    351000   0.99883562     0.0023323615  -0.001638834    20.501228      19.017957      1.4832709     -1.4778282      15199.934    
    352000   0.9929364      0.0023323615   0.00036306742  20.558352      19.083841      1.4745106     -1.3151196      14497.885    
    353000   1.0030118      0.0023323615   0.0018872731   20.576186      19.086714      1.4894726     -1.3184973      14427.589    
    354000   1.1013251      0.0023323615  -0.0010909822   20.670824      19.035356      1.6354678     -1.4167327      15607.905    
    355000   0.95427946     0.0023323615   0.0019553347   20.581333      19.164228      1.417105      -1.3199931      15905.303    
    356000   0.98059738     0.0023323615   0.0010552488   20.518769      19.062582      1.4561871     -1.3257513      14863.688    
    357000   0.9043024      0.0023323615  -0.003777712    20.114602      18.771713      1.3428891     -1.7889487      13962.34     
    358000   1.0253481      0.0023323615  -0.00053839375  20.485757      18.963115      1.5226419     -1.5865847      14443.994    
    359000   1.0526066      0.0023323615   0.0020987029   20.836101      19.27298       1.5631208     -1.3475913      16146.408    
    360000   1.021622       0.0023323615  -0.0024208649   20.524535      19.007426      1.5171087     -1.4607164      18004.817    
    361000   0.94849405     0.0023323615  -0.0049769165   20.43029       19.021776      1.4085137     -1.4669114      19117.222    
    362000   1.0028188      0.0023323615  -0.00018758604  20.843309      19.354123      1.4891859     -1.2802714      19690.879    
    363000   0.98051283     0.0023323615   0.0010779356   20.552798      19.096736      1.4560616     -1.3308895      18486.35     
    364000   0.92590661     0.0023323615   0.0012960785   20.731129      19.356158      1.3749713     -1.0926242      16468.388    
    365000   1.1021697      0.0023323615   0.00025484429  20.965537      19.328815      1.636722      -1.2118545      15651.253    
    366000   1.1086264      0.0023323615   7.1770323e-05  20.980111      19.333801      1.6463103     -1.2168291      16152.564    
    367000   1.030598       0.0023323615   0.0003504434   20.974257      19.443819      1.530438      -1.1365689      17201.893    
    368000   1.0607243      0.0023323615   0.0010707138   20.842008      19.266832      1.5751757     -1.205651       18215.654    
    369000   1.0173888      0.0023323615   0.0032392277   20.865778      19.354956      1.5108223     -1.1936552      17904.242    
    370000   0.96751924     0.0023323615  -0.00075603577  20.794302      19.357536      1.4367661     -1.2429707      17510.748    
    371000   0.98125862     0.0023323615   0.00089984013  20.755546      19.298377      1.4571691     -1.2921177      16339.887    
    372000   1.0873021      0.0023323615  -3.4681653e-05  20.525738      18.911094      1.6146436     -1.4728471      16441.25     
    373000   1.0126846      0.0023323615   0.0021892501   20.460444      18.956608      1.5038366     -1.4738377      17095.968    
    374000   1.0584193      0.0023323615  -0.00087021398  20.748318      19.176566      1.5717526     -1.363685       16705.305    
    375000   0.9692697      0.0023323615   0.00078141124  20.606499      19.167134      1.4393655     -1.3594932      15662.504    
    376000   0.88258682     0.0023323615  -0.0033061371   20.304089      18.993448      1.3106414     -1.4228738      15430.834    
    377000   1.1083464      0.0023323615   0.0024776711   20.676216      19.030322      1.6458945     -1.3723837      16905.247    
    378000   0.94217864     0.0023323615   0.0014624351   20.612355      19.21322       1.3991353     -1.2193751      19005.114    
    379000   0.96266271     0.0023323615   0.00032229629  20.676873      19.247319      1.4295541     -1.1963673      20371.744    
    380000   0.99973423     0.0023323615   0.00069381492  20.635935      19.151329      1.4846053     -1.2882137      21299.078    
    381000   1.0405501      0.0023323615  -0.0019598485   20.660744      19.115527      1.5452169     -1.3058956      21599.207    
    382000   0.87336318     0.0023323615   0.00087073285  20.819322      19.522378      1.2969443     -1.0179877      21062.192    
    383000   0.98587087     0.0023323615  -0.0010199993   20.861822      19.397804      1.4640182     -1.0997608      19680.737    
    384000   1.205084       0.0023323615   0.0016567867   21.039533      19.249983      1.7895497     -1.3138739      18662.49     
    385000   1.1369866      0.0023323615   0.0026689097   20.832995      19.144569      1.6884251     -1.2978013      17708.849    
    386000   1.0000408      0.0023323615   0.0044109007   20.495309      19.010248      1.4850607     -1.4249526      16011.433    
    387000   0.95093704     0.0023323615   0.0019246321   20.358563      18.946421      1.4121415     -1.4465001      16340.877    
    388000   1.106631       0.0023323615   0.0017528902   20.760788      19.117441      1.643347      -1.2402653      17878.037    
    389000   1.0370435      0.0023323615   0.001064676    20.744365      19.204356      1.5400096     -1.2379451      20133.03     
    390000   1.0512363      0.0023323615  -0.0033667274   20.774417      19.213331      1.561086      -1.3350101      21957.016    
    391000   1.1223411      0.0023323615   0.00010050935  20.942443      19.275767      1.6666765     -1.1898041      21731.536    
    392000   1.0647402      0.0023323615  -0.00024124021  21.178991      19.597852      1.5811393     -1.0275326      21106.043    
    393000   0.89438722     0.0023323615  -0.0018120022   20.779902      19.451737      1.328165      -1.0695649      20127.2      
    394000   1.0415731      0.0023323615   0.004581722    20.816877      19.270141      1.546736      -1.3051238      17966.733    
    395000   1.0463754      0.0023323615  -0.0015981531   20.962022      19.408154      1.5538675     -1.2028835      17013.424    
    396000   0.95126927     0.0023323615  -0.0028581319   20.949649      19.537014      1.4126349     -1.0098811      16931.814    
    397000   0.93294771     0.0023323615   0.0021242665   20.759327      19.3739        1.3854273     -1.1061164      17731.541    
    398000   0.87017108     0.0023323615  -0.00044695022  20.594879      19.302675      1.2922041     -1.1801718      19304.896    
    399000   1.0418217      0.0023323615   0.00086498271  20.853622      19.306516      1.5471053     -1.1507775      20452.936    
    400000   1.0354339      0.0023323615   0.00027862488  21.003837      19.466218      1.5376193     -1.0313247      20370.384    
    401000   1.0677692      0.0023323615  -0.0012217867   20.83513       19.249493      1.5856372     -1.3084903      19994.35     
    402000   1.0059114      0.0023323615  -0.00081449761  20.751168      19.257389      1.4937784     -1.2051877      19798.519    
    403000   0.94122977     0.0023323615   0.00098349328  20.517499      19.119772      1.3977262     -1.3484314      19307.45     
    404000   0.99420105     0.0023323615   0.0026454775   20.538684      19.062295      1.4763886     -1.3596968      18768.335    
    405000   1.0611235      0.0023323615  -0.00058811441  20.743463      19.167694      1.5757684     -1.2627725      18101.715    
    406000   0.80786046     0.0023323615  -4.0759964e-05  20.240077      19.040404      1.1996728     -1.3714999      17044.971    
    407000   1.0613658      0.0023323615  -0.0012666527   20.928574      19.352446      1.5761282     -1.278148       17898.253    
    408000   0.87713679     0.0023323615  -0.005475234    20.607247      19.304699      1.3025481     -1.2755587      18245.817    
    409000   0.93612459     0.0023323615  -0.00049067822  20.648979      19.258834      1.390145      -1.1982354      19706.97     
    410000   1.0528939      0.0023323615  -0.00044411182  20.997876      19.434328      1.5635475     -1.0414591      19751.2      
[...]
    861000   1.0369565      0.0023323615  -0.0034764418   21.027508      19.487627      1.5398805     -1.0316147      21136.033    
    862000   0.93930556     0.0023323615   0.00037224246  20.628317      19.233449      1.3948688     -1.162316       21828.054    
    863000   0.91497785     0.0023323615  -0.002188927    20.702315      19.343573      1.3587421     -1.0911685      20659.104    
    864000   0.94034438     0.0023323615   0.00086157946  20.628888      19.232476      1.3964114     -1.2989604      20441.823    
    865000   0.84436314     0.0023323615  -0.0048378519   20.697792      19.443913      1.2538793     -1.109571       19582.899    
    866000   1.0067096      0.0023323615  -0.002225036    20.828792      19.333828      1.4949638     -1.0981046      19446.811    
    867000   0.80801977     0.0023323615  -0.00097961232  20.385513      19.185604      1.1999094     -1.327488       18253.117    
    868000   0.97323738     0.0023323615  -0.0014055883   20.502634      19.057376      1.4452575     -1.3725439      18879.561    
    869000   0.94679419     0.0023323615   0.00088750886  20.51948       19.113491      1.4059894     -1.3971975      18456.818    
    870000   1.0029722      0.0023323615   0.00073055066  20.676011      19.186597      1.4894138     -1.3222162      18991.106    
    871000   1.0406385      0.0023323615   0.0019074654   20.737302      19.191954      1.5453481     -1.256157       18798.172    
    872000   0.91458605     0.0023323615   0.0079878163   20.342619      18.984458      1.3581603     -1.4617307      18482.561    
    873000   1.0308323      0.0023323615   0.00062191556  20.594121      19.063335      1.530786      -1.4720764      18913.977    
    874000   0.94679433     0.0023323615   0.0017365783   20.761864      19.355875      1.4059896     -1.2607476      19670.141    
    875000   0.88387512     0.0023323615  -0.00041458791  20.516267      19.203712      1.3125546     -1.2719788      18991.481    
    876000   1.042071       0.0023323615  -0.0021713883   20.684103      19.136627      1.5474754     -1.294863       18638.141    
    877000   1.00904        0.0023323615   0.00067308219  20.447529      18.949104      1.4984244     -1.4767176      17611.469    
    878000   0.96951708     0.0023323615   0.0016856931   20.563232      19.123499      1.4397329     -1.4130534      17092.315    
    879000   0.912163       0.0023323615   0.0014825777   20.596921      19.242359      1.3545621     -1.3521434      16592.894    
    880000   0.92806947     0.0023323615   0.0041415511   20.572716      19.194533      1.3781832     -1.251344       17116.787    
    881000   0.97045966     0.0023323615   0.0022381532   20.61921       19.178077      1.4411326     -1.2212487      19019.988    
    882000   1.0218375      0.0023323615   0.00061069574  20.442679      18.925251      1.5174287     -1.4337384      19596.737    
    883000   1.0385068      0.0023323615  -0.0014424925   20.798746      19.256563      1.5421826     -1.2795486      18803.431    
    884000   1.0327108      0.0023323615   0.0021467554   20.762236      19.22866       1.5335755     -1.1864882      16986.43     
    885000   1.1020624      0.0023323615   0.0024606788   21.025034      19.388471      1.6365627     -1.1461589      16092.889    
    886000   1.1334844      0.0023323615   0.0029080393   20.990391      19.307167      1.6832243     -1.108204       16204.526    
    887000   0.96540775     0.0023323615   0.0040635427   20.9811        19.547469      1.4336305     -0.91834658     17305.534    
    888000   1.0521108      0.0023323615  -0.0052762467   21.116451      19.554067      1.5623845     -1.0323637      18875.584    
    889000   1.0212986      0.0023323615   0.0016631785   21.054393      19.537764      1.5166284     -1.0829813      19666.192    
    890000   0.90912752     0.0023323615  -0.0015474171   20.714437      19.364383      1.3500544     -1.1336101      19534.276    
    891000   0.99763927     0.0023323615  -0.00012654049  20.831317      19.349823      1.4814943     -1.0988605      18819.54     
    892000   0.88956154     0.0023323615   0.0020249518   20.632203      19.311205      1.3209989     -1.1287003      18696.049    
    893000   1.0190998      0.0023323615   0.001734742    20.754952      19.241588      1.5133632     -1.1657892      19008.502    
    894000   0.96543342     0.0023323615   0.0023209422   20.924         19.490332      1.4336686     -0.97479788     19598.214    
    895000   1.0647614      0.0023323615   0.00075308862  20.902393      19.321222      1.5811707     -1.0934013      19481.123    
    896000   1.0716898      0.0023323615   0.0061790468   20.813438      19.221979      1.5914593     -1.2319717      19032.9      
    897000   1.2532096      0.0023323615   0.0058984088   21.107879      19.246863      1.8610162     -1.2421352      18069.835    
    898000   0.99055763     0.0023323615  -0.0016820025   20.598982      19.128004      1.4709781     -1.3522771      17055.709    
    899000   0.85219659     0.0023323615   0.00055430258  20.147828      18.882316      1.2655119     -1.5147067      16141.561    
    900000   1.1764107      0.0023323615   0.002014489    20.815306      19.068336      1.7469698     -1.307398       15211.118    
    901000   0.91866681     0.0023323615   0.00032113597  20.469539      19.105319      1.3642202     -1.2922641      15119.598    
    902000   1.0260096      0.0023323615   0.0025894148   20.927882      19.404258      1.5236243     -1.0784077      15887.042    
    903000   1.0664513      0.0023323615   0.00050611605  20.778906      19.195226      1.5836802     -1.3307532      17002.584    
    904000   0.97878512     0.0023323615  -0.0011036311   20.624708      19.171212      1.4534959     -1.2965148      17708.918    
    905000   1.0354985      0.0023323615  -0.00066323669  20.843955      19.30624       1.5377153     -1.1698626      16872.948    
    906000   0.91986452     0.0023323615   0.0014565047   20.764322      19.398323      1.3659988     -1.2041581      16981.566    
    907000   0.93058858     0.0023323615  -0.00014863818  20.550805      19.168881      1.381924      -1.3560236      18005.07     
    908000   0.97445985     0.0023323615   0.00033505462  20.626836      19.179763      1.4470729     -1.3475186      18554.865    
    909000   0.87804268     0.0023323615   0.001927357    20.769411      19.465517      1.3038934     -1.0474429      18130.463    
    910000   0.92044404     0.0023323615  -0.0014451617   20.551691      19.184832      1.3668594     -1.2888086      17910.705    
    911000   0.96843846     0.0023323615   0.0036770501   20.504402      19.066271      1.4381311     -1.3892167      17156.586    
    912000   1.0464602      0.0023323615  -0.0018895409   20.555541      19.001547      1.5539934     -1.4550946      15608.769    
    913000   1.0268871      0.0023323615   0.0041386487   20.58168       19.056753      1.5249274     -1.4668506      15253.143    
    914000   0.91067039     0.0023323615   0.0018817295   20.562307      19.209962      1.3523455     -1.3041         15222.922    
    915000   0.95897613     0.0023323615   0.0020081626   20.593366      19.169287      1.4240796     -1.3099675      16669.23     
    916000   1.1039353      0.0023323615  -0.0024322546   20.811647      19.172303      1.639344      -1.3576334      18849.669    
    917000   1.076364       0.0023323615  -0.0044059716   20.909466      19.311065      1.5984006     -1.1770471      20091.025    
    918000   1.0404854      0.0023323615  -0.0018625827   20.914893      19.369772      1.5451207     -1.1508891      19634.083    
    919000   1.087485       0.0023323615  -0.0015008061   21.225478      19.610562      1.6149152     -0.95298922     19434.274    
    920000   1.0078884      0.0023323615  -0.0014961013   21.085198      19.588484      1.4967143     -0.85030834     18122.135    
    921000   1.0124182      0.0023323615  -0.0034672315   21.02046       19.517019      1.503441      -1.0220002      16502.016    
    922000   1.0341811      0.0023323615  -0.0018242816   20.592497      19.056738      1.5357589     -1.3865706      15951.826    
    923000   1.069004       0.0023323615   0.001219662    20.729329      19.141858      1.5874709     -1.3651951      16687.878    
    924000   0.99121099     0.0023323615   0.0020835714   20.425392      18.953443      1.4719483     -1.4578935      16896.464    
    925000   1.0737522      0.0023323615  -0.0031711214   20.536781      18.942259      1.5945219     -1.4701913      16869.37     
    926000   0.89978782     0.0023323615  -0.00271364     20.597438      19.261253      1.3361849     -1.3172792      16619.691    
    927000   1.0603119      0.0023323615  -0.0016039091   20.888763      19.3142        1.5745632     -1.187302       18198.978    
    928000   1.0783123      0.0023323615   0.00053639359  20.717632      19.116338      1.6012938     -1.3411936      20059.478    
    929000   0.93676409     0.0023323615  -0.0019343318   20.711984      19.32089       1.3910947     -1.1889526      19662.453    
    930000   0.88563308     0.0023323615   0.0024396905   20.699841      19.384675      1.3151651     -1.2091095      19398.064    
    931000   0.92445421     0.0023323615   0.0031070625   20.670689      19.297875      1.3728145     -1.2208366      19561.833    
    932000   0.97490105     0.0023323615  -0.0001112465   20.953095      19.505367      1.4477281     -1.161064       20111.368    
    933000   1.0339706      0.0023323615   0.00047441021  20.787599      19.252152      1.5354464     -1.2049106      20246.299    
    934000   0.9898371      0.0023323615   0.00063153247  20.816708      19.3468        1.4699081     -1.204725       19763.79     
    935000   0.967157       0.0023323615  -0.00086704367  20.941176      19.504948      1.4362281     -1.0959596      19293.239    
    936000   1.1098296      0.0023323615   0.0010606679   20.974872      19.326775      1.6480969     -1.1479921      19536.486    
    937000   0.91348693     0.0023323615   0.0020905222   20.552158      19.19563       1.3565281     -1.3892102      19000.187    
    938000   1.1624428      0.0023323615   0.0029580626   21.127504      19.401276      1.7262275     -1.1197155      18767.735    
    939000   0.97431692     0.0023323615   0.0012018687   20.589169      19.142308      1.4468606     -1.2648794      18386.548    
    940000   0.93592594     0.0023323615   0.00073753425  20.64749       19.25764       1.38985       -1.2860865      17759.077    
    941000   0.92187839     0.0023323615  -0.0026548624   20.764985      19.395996      1.3689894     -1.1428118      18115.286    
    942000   0.96399814     0.0023323615   0.00017248821  20.645372      19.213834      1.4315372     -1.3100602      18373.619    
    943000   1.057433       0.0023323615   0.001675801    20.746974      19.176686      1.570288      -1.2415886      19037.267    
    944000   0.99950935     0.0023323615  -0.00031094507  20.81159       19.327319      1.4842714     -1.1349628      19622.657    
    945000   1.0129852      0.0023323615   0.0012008782   20.965307      19.461024      1.504283      -1.0295462      19594.248    
    946000   1.0299202      0.0023323615   0.0020759593   21.049624      19.520192      1.5294314     -0.99718057     18781.593    
    947000   1.0464207      0.0023323615  -0.0035387905   20.935144      19.38121       1.5539347     -1.1564246      18367.235    
    948000   1.0679305      0.0023323615   0.0028513768   20.812795      19.226918      1.5858767     -1.2083211      18577.247    
    949000   1.0477818      0.0023323615  -0.0023244649   20.802197      19.246241      1.555956      -1.3386099      18705.449    
    950000   0.89299281     0.0023323615   0.0025793002   20.48544       19.159345      1.3260943     -1.4225442      18302.603    
    951000   0.97634707     0.0023323615   0.00048265792  20.653978      19.204103      1.4498754     -1.2998971      17241.612    
    952000   1.0633888      0.0023323615  -0.0012923208   20.470557      18.891425      1.5791323     -1.4668682      16653.366    
    953000   1.1691363      0.0023323615   0.0039509912   20.670347      18.934179      1.7361674     -1.5374832      15868.917    
    954000   0.82311678     0.0023323615  -0.0065156222   20.122504      18.900176      1.2223284     -1.5253837      15912.659    
    955000   1.0803948      0.0023323615   0.003268182    20.688552      19.084165      1.6043863     -1.4222315      16373.317    
    956000   0.97170532     0.0023323615   0.0015634123   20.438613      18.995631      1.4429824     -1.3738859      17484.705    
    957000   0.99977603     0.0023323615  -0.00025401786  20.797702      19.313035      1.4846674     -1.128843       18247.911    
    958000   0.97382206     0.0023323615   0.0035603653   20.48564       19.039514      1.4461258     -1.3707153      18574.211    
    959000   0.88534182     0.0023323615  -0.0015773587   20.480286      19.165553      1.3147326     -1.2373586      18156.66     
    960000   0.91258467     0.0023323615   0.0012807961   20.693497      19.338309      1.3551882     -1.144652       17515.818    
    961000   0.96221404     0.0023323615   0.0031564777   20.412721      18.983833      1.4288878     -1.4764456      17643.977    
    962000   0.99384896     0.0023323615  -0.0014522845   20.692393      19.216528      1.4758657     -1.3891246      16814.644    
    963000   0.85574905     0.0023323615   0.0012534961   20.546704      19.275916      1.2707873     -1.2216291      16070.308    
    964000   0.9231287      0.0023323615  -0.0020471068   20.724716      19.35387       1.3708461     -1.1197767      16185.179    
    965000   1.0949467      0.0023323615   0.0047093843   20.980472      19.354476      1.6259958     -1.1710452      17148.229    
    966000   0.99167517     0.0023323615  -0.0003230517   20.673197      19.200559      1.4726376     -1.2538797      19472.165    
    967000   1.0947585      0.0023323615   0.0017045759   21.0514        19.425684      1.6257164     -1.0314583      20833.495    
    968000   1.0180323      0.0023323615  -0.00092002818  20.836272      19.324494      1.5117779     -1.2229506      21538.364    
    969000   1.0863676      0.0023323615  -0.0019965534   20.961067      19.347812      1.6132559     -1.2212621      21236.586    
    970000   0.93226122     0.0023323615   0.0045233646   20.531034      19.146626      1.3844079     -1.2946822      21084.201    
    971000   1.1227446      0.0023323615  -0.0011061489   20.852403      19.185127      1.6672757     -1.3377847      18677.381    
    972000   0.93020894     0.0023323615  -0.0037194486   20.456709      19.075349      1.3813603     -1.4354104      17100.695    
    973000   1.0180145      0.0023323615  -0.0010756257   20.963007      19.451256      1.5117515     -1.1498798      16205.634    
    974000   0.88017437     0.0023323615   0.001288377    20.564498      19.257439      1.3070589     -1.3607943      17294.211    
    975000   0.97679007     0.0023323615   0.0019010608   20.577562      19.127029      1.4505333     -1.3014801      19181.721    
    976000   0.98666545     0.0023323615   0.00051760114  20.913617      19.448419      1.4651982     -1.0095734      20877.668    
    977000   1.035336       0.0023323615  -8.1529067e-05  20.813783      19.276309      1.537474      -1.2037276      22266.448    
    978000   1.0449668      0.0023323615  -0.0010725929   20.935035      19.383259      1.5517757     -1.0304879      22297.532    
    979000   0.9513824      0.0023323615  -0.0026010506   20.66027       19.247467      1.4128029     -1.3076799      21666.649    
    980000   1.0166297      0.0023323615  -0.00051142774  20.766606      19.256911      1.5096951     -1.1779895      20473.783    
    981000   0.87796606     0.0023323615  -0.00137528     20.697395      19.393615      1.3037796     -1.044593       19032.584    
    982000   1.0516408      0.0023323615  -2.646202e-05   20.896593      19.334906      1.5616866     -1.1574346      18434.538    
    983000   0.94574882     0.0023323615   0.0046706178   20.673541      19.269104      1.404437      -1.3242207      17886.755    
    984000   1.1190854      0.0023323615   0.0047203032   20.7682        19.106359      1.6618418     -1.2991629      16398.62     
    985000   1.003585       0.0023323615   0.0016723976   20.61803       19.127707      1.4903237     -1.3360025      17063.909    
    986000   1.1258062      0.0023323615  -0.0015083457   20.745391      19.073569      1.6718223     -1.4146916      19179.848    
    987000   0.98039268     0.0023323615  -0.00026613662  20.408657      18.952774      1.4558831     -1.4717812      19636.296    
    988000   1.0103058      0.0023323615   0.0031731402   20.725216      19.224912      1.5003041     -1.2479058      18895.112    
    989000   1.0609351      0.0023323615  -0.00015948148  20.911225      19.335736      1.5754886     -1.2837733      16996.331    
    990000   1.0362634      0.0023323615  -0.0026708312   21.207446      19.668594      1.5388511     -1.0238235      17645.661    
    991000   1.0517311      0.0023323615   0.003211676    20.95015       19.388329      1.5618206     -1.1797882      19312.744    
    992000   1.0940532      0.0023323615   0.0057459773   20.902689      19.27802       1.6246689     -1.2796424      19801.029    
    993000   1.0775851      0.0023323615   5.1970308e-05  21.05077       19.450556      1.6002138     -1.1637479      20485.041    
    994000   1.1452627      0.0023323615  -0.00050891824  21.063632      19.362917      1.7007152     -1.1338952      20578.212    
    995000   0.91340537     0.0023323615   0.00012150965  20.665995      19.309588      1.356407      -1.1602538      19861.55     
    996000   0.97633764     0.0023323615   0.0021600571   20.500874      19.051012      1.4498614     -1.3352433      20081.485    
    997000   0.94225879     0.0023323615  -0.0017555323   20.714967      19.315712      1.3992543     -1.1993851      18775.883    
    998000   0.90629861     0.0023323615   0.00022502367  20.70648       19.360627      1.3458534     -1.1044877      16384.953    
    999000   1.073572       0.0023323615   0.003534211    20.689935      19.095681      1.5942544     -1.4070325      15710.493    
   1000000   0.99650106     0.0023323615   0.0049996438   20.740824      19.26102       1.4798041     -1.2883501      16369.751    
Loop time of 55.1456 on 1 procs for 1000000 steps with 100 atoms

Performance: 7833814.099 tau/day, 18133.829 timesteps/s
99.8% CPU use with 1 MPI tasks x 1 OpenMP threads

MPI task timing breakdown:
Section |  min time  |  avg time  |  max time  |%varavg| %total
---------------------------------------------------------------
Pair    | 41.726     | 41.726     | 41.726     |   0.0 | 75.67
Bond    | 1.4591     | 1.4591     | 1.4591     |   0.0 |  2.65
Neigh   | 5.1174     | 5.1174     | 5.1174     |   0.0 |  9.28
Comm    | 3.4866     | 3.4866     | 3.4866     |   0.0 |  6.32
Output  | 0.28319    | 0.28319    | 0.28319    |   0.0 |  0.51
Modify  | 2.6556     | 2.6556     | 2.6556     |   0.0 |  4.82
Other   |            | 0.4173     |            |       |  0.76

Nlocal:            100 ave         100 max         100 min
Histogram: 1 0 0 0 0 0 0 0 0 0
Nghost:            242 ave         242 max         242 min
Histogram: 1 0 0 0 0 0 0 0 0 0
Neighs:           3763 ave        3763 max        3763 min
Histogram: 1 0 0 0 0 0 0 0 0 0

Total # of neighbors = 3763
Ave neighs/atom = 37.63
Ave special neighs/atom = 1.98
Neighbor list builds = 98030
Dangerous builds = 81197

write_data      ${outputfile_assembled} nofix nocoeff
write_data      7_assembled.data nofix nocoeff
System init for write_data ...
Generated 0 of 6 mixed pair_coeff terms from geometric mixing rule

Total wall time: 0:00:56
