LAMMPS (23 Jun 2022 - Update 1)
OMP_NUM_THREADS environment is not set. Defaulting to 1 thread. (src/comm.cpp:98)
  using 1 OpenMP thread(s) per MPI task


variable        runtime equal 1000000
variable		subsample_rate equal 1000

variable		outputfile_created string '3_created.data'
variable		outputfile_relaxed string '5_relaxed.data'
variable		outputfile_selfasb string '6_a_self_assemble.lammpstrj'
variable		outputfile_trajlin string '6_b_trajlin.data'
variable		outputfile_assembled string '7_assembled.data'

units           lj
atom_style      full
dimension       3
boundary        p p p
timestep        0.005

read_data       ${outputfile_created}
read_data       3_created.data
Reading data file ...
  orthogonal box = (0 0 0) to (35 35 35)
  1 by 1 by 1 MPI processor grid
  reading atoms ...
  100 atoms
  reading velocities ...
  100 velocities
  scanning bonds ...
  1 = max bonds/atom
  reading bonds ...
  99 bonds
Finding 1-2 1-3 1-4 neighbors ...
  special bond factors lj:    0        0        0       
  special bond factors coul:  0        0        0       
     2 = max # of 1-2 neighbors
     2 = max # of 1-3 neighbors
     4 = max # of 1-4 neighbors
     6 = max # of special neighbors
  special bonds CPU = 0.000 seconds
  read_data CPU = 0.006 seconds

bond_style      fene
bond_coeff      * 30.0 1.5 1.0 1.0
special_bonds   fene
Finding 1-2 1-3 1-4 neighbors ...
  special bond factors lj:    0        1        1       
  special bond factors coul:  0        1        1       
     2 = max # of 1-2 neighbors
     6 = max # of special neighbors
  special bonds CPU = 0.000 seconds

variable        Temp equal 1.0
variable        velSeed equal 926458

velocity        all create ${Temp} ${velSeed}
velocity        all create 1 ${velSeed}
velocity        all create 1 926458

### Output
thermo_style    custom step temp density press etotal pe ke epair spcpu
thermo          1000

###########################################################################
# Soft relaxation (to remove overlaps of particles)
######################################################################

pair_style      soft 1.0
pair_coeff      * * 0.0
variable        prefactor equal ramp(0,300)
fix             rampSoft all adapt 1 pair soft a * * v_prefactor

minimize        0.0 1.0e-8 1000 100000
WARNING: Using 'neigh_modify every 1 delay 0 check yes' setting during minimization (src/min.cpp:187)
Generated 0 of 6 mixed pair_coeff terms from geometric mixing rule
Neighbor list info ...
  update every 1 steps, delay 0 steps, check yes
  max neighbors/atom: 2000, page size: 100000
  master list distance cutoff = 1.3
  ghost atom cutoff = 1.3
  binsize = 0.65, bins = 54 54 54
  1 neighbor lists, perpetual/occasional/extra = 1 0 0
  (1) pair soft, perpetual
      attributes: half, newton on
      pair build: half/bin/newton
      stencil: half/bin/3d
      bin: standard
WARNING: Communication cutoff 1.3 is shorter than a bond length based estimate of 1.7550000000000001. This may lead to errors. (src/comm.cpp:727)
Per MPI rank memory allocation (min/avg/max) = 8.346 | 8.346 | 8.346 Mbytes
   Step          Temp         Density         Press          TotEng         PotEng         KinEng         E_pair         S/CPU     
         0   1              0.0023323615  -0.0039617958   21.524174      20.039174      1.485          0              0            
       362   1              0.0023323615   0.0023090379   21.485548      20.000548      1.485          0              68615.85     
Loop time of 0.00527808 on 1 procs for 362 steps with 100 atoms

99.2% CPU use with 1 MPI tasks x 1 OpenMP threads

Minimization stats:
  Stopping criterion = force tolerance
  Energy initial, next-to-last, final = 
      20.0391741078675   20.0005480767337   20.0005480767337
  Force two-norm initial, final = 11.878422 7.9509778e-09
  Force max component initial, final = 6.6117807 1.3572772e-09
  Final line search alpha, max atom move = 1 1.3572772e-09
  Iterations, force evaluations = 362 738

MPI task timing breakdown:
Section |  min time  |  avg time  |  max time  |%varavg| %total
---------------------------------------------------------------
Pair    | 0.00024294 | 0.00024294 | 0.00024294 |   0.0 |  4.60
Bond    | 0.0023513  | 0.0023513  | 0.0023513  |   0.0 | 44.55
Neigh   | 0.0015107  | 0.0015107  | 0.0015107  |   0.0 | 28.62
Comm    | 0.00018405 | 0.00018405 | 0.00018405 |   0.0 |  3.49
Output  | 0          | 0          | 0          |   0.0 |  0.00
Modify  | 0          | 0          | 0          |   0.0 |  0.00
Other   |            | 0.0009891  |            |       | 18.74

Nlocal:            100 ave         100 max         100 min
Histogram: 1 0 0 0 0 0 0 0 0 0
Nghost:             20 ave          20 max          20 min
Histogram: 1 0 0 0 0 0 0 0 0 0
Neighs:              0 ave           0 max           0 min
Histogram: 1 0 0 0 0 0 0 0 0 0

Total # of neighbors = 0
Ave neighs/atom = 0
Ave special neighs/atom = 1.98
Neighbor list builds = 17
Dangerous builds = 0

fix             nvtSoft all nvt temp ${Temp} ${Temp} 0.5
fix             nvtSoft all nvt temp 1 ${Temp} 0.5
fix             nvtSoft all nvt temp 1 1 0.5
run             100000
Generated 0 of 6 mixed pair_coeff terms from geometric mixing rule
WARNING: Communication cutoff 1.3 is shorter than a bond length based estimate of 1.7550000000000001. This may lead to errors. (src/comm.cpp:727)
Per MPI rank memory allocation (min/avg/max) = 7.221 | 7.221 | 7.221 Mbytes
   Step          Temp         Density         Press          TotEng         PotEng         KinEng         E_pair         S/CPU     
       362   1              0.0023323615   0.0023090379   21.485548      20.000548      1.485          0              0            
      1000   0.90989032     0.0023323615  -0.0021940042   21.776974      20.425787      1.3511871      0.00036425437  77822.284    
      2000   0.86546688     0.0023323615   0.0034714157   21.677128      20.39191       1.2852183      0.0025814786   77351.102    
      3000   0.98199538     0.0023323615   0.0028144228   21.866132      20.407869      1.4582631      0.0011756043   73754.667    
      4000   1.004495       0.0023323615  -0.0014058211   21.945624      20.453949      1.4916751      0.011986179    74001.722    
      5000   1.1222705      0.0023323615   0.0044495116   21.986385      20.319813      1.6665718      0.0050317639   74240.554    
      6000   1.0538243      0.0023323615   0.0023957538   21.985713      20.420784      1.564929       0.012100514    75022.047    
      7000   1.0210598      0.0023323615  -0.00038820026  21.904665      20.388391      1.5162738      0              76291.675    
      8000   0.94819751     0.0023323615   0.0024943091   21.747889      20.339816      1.4080733      0              75043.987    
      9000   0.92364502     0.0023323615   0.0020053029   21.724166      20.352554      1.3716129      1.7780894e-05  74931.821    
     10000   0.86685188     0.0023323615   0.00078277366  21.644879      20.357604      1.287275       0.0098636418   73787.004    
     11000   1.0057103      0.0023323615   0.00010113276  21.8558        20.362321      1.4934798      0.020705341    74910.901    
     12000   0.97901664     0.0023323615  -0.0026996968   21.871206      20.417366      1.4538397      0.0052928539   75185.59     
     13000   0.97718436     0.0023323615  -6.1641422e-06  21.963706      20.512587      1.4511188      0.025022446    73731.028    
     14000   1.0530014      0.0023323615  -0.0009993112   21.947994      20.384287      1.5637071      0.0020860456   69286.246    
     15000   0.99094527     0.0023323615   0.0011068478   21.895146      20.423592      1.4715537      0.0015091113   73370.769    
     16000   0.91285091     0.0023323615  -0.00025424173  21.87524       20.519657      1.3555836      0.0047853639   73932.272    
     17000   0.82806978     0.0023323615  -0.00054698156  21.701984      20.472301      1.2296836      0              74129.726    
     18000   1.043278       0.0023323615  -6.6143919e-05  22.003299      20.454031      1.5492679      0.0034319132   72556.556    
     19000   1.0879249      0.0023323615  -0.0017804642   21.998985      20.383416      1.6155685      0.015376175    74107.433    
     20000   1.1144506      0.0023323615   0.0025198298   22.190904      20.535944      1.6549592      0              74920.796    
     21000   1.0427751      0.0023323615   0.0011345349   22.099492      20.550971      1.548521       0.00040047813  75327.161    
     22000   1.0586695      0.0023323615   0.0017882747   22.05673       20.484606      1.5721242      0              74930.249    
     23000   1.0058426      0.0023323615  -0.0055245362   21.954628      20.460951      1.4936763      0.0027619031   74432.436    
     24000   0.98273442     0.0023323615   0.0015147357   21.862067      20.402707      1.4593606      0              74827.112    
     25000   0.95835343     0.0023323615   0.0017808774   21.937761      20.514606      1.4231548      0.00020839942  74671.156    
     26000   0.93993778     0.0023323615  -0.0021777292   21.884849      20.489042      1.3958076      0.0088889834   75041.791    
     27000   0.9308188      0.0023323615  -0.00011239942  21.842252      20.459986      1.3822659      0.021612409    74473.201    
     28000   1.0149581      0.0023323615   0.0041996387   21.906846      20.399633      1.5072129      0.0064059022   74970.544    
     29000   0.92841138     0.0023323615  -2.5398808e-05  21.987185      20.608494      1.3786909      0.0046112484   74492.768    
     30000   1.021043       0.0023323615   0.001589158    22.097958      20.581709      1.5162489      0.016799508    72419.052    
     31000   1.0465985      0.0023323615  -0.0021744286   22.037917      20.483718      1.5541987      0.0057879149   75377.104    
     32000   0.98907108     0.0023323615  -0.0015558606   22.044089      20.575318      1.4687705      0.009448173    74913.713    
     33000   1.0918536      0.0023323615  -0.0025643847   22.039275      20.417873      1.6214025      0              73874.329    
     34000   0.99801543     0.0023323615   0.0016279766   21.932339      20.450286      1.4820529      0.017384617    76237.421    
     35000   1.0352271      0.0023323615  -0.0052971711   22.076004      20.538692      1.5373122      0.00010473809  74997.246    
     36000   1.1141579      0.0023323615  -0.00093279925  22.222491      20.567966      1.6545245      0.00033678641  75687.25     
     37000   1.0369415      0.0023323615   0.00013065175  22.217841      20.677983      1.5398581      0.013788831    74760.246    
     38000   1.0515596      0.0023323615   0.0021717558   22.070766      20.5092        1.561566       0.0067894678   75340.015    
     39000   1.0238495      0.0023323615   0.00026414509  22.040141      20.519725      1.5204165      0.00044464649  74095.002    
     40000   1.0749111      0.0023323615  -0.0026849368   22.039327      20.443084      1.596243       0.012651334    72947.633    
     41000   0.99070886     0.0023323615  -0.0030385564   22.03241       20.561207      1.4712027      0.00092855646  75921.209    
     42000   0.95315224     0.0023323615   0.0019788197   21.965263      20.549832      1.4154311      0.020233689    74343.567    
     43000   1.0644183      0.0023323615  -0.0011168725   22.287172      20.706511      1.5806611      0.039694129    74585.955    
     44000   1.0253747      0.0023323615  -0.006676522    22.066233      20.543552      1.5226814      0              73627.905    
     45000   0.94179556     0.0023323615  -0.0047206018   21.970644      20.572077      1.3985664      0.019869988    74082.574    
     46000   1.0083495      0.0023323615  -0.0017646918   21.972114      20.474715      1.497399       0.00026040605  74368.767    
     47000   0.98767959     0.0023323615  -0.00080218158  22.091674      20.62497       1.4667042      0.024266258    74121.034    
     48000   1.1473449      0.0023323615  -0.0025885687   22.080512      20.376705      1.7038072      0.00065962995  74712.847    
     49000   1.0679312      0.0023323615   0.0017688272   21.970482      20.384604      1.5858779      0.014142422    75765.037    
     50000   0.9581935      0.0023323615   0.0014398836   21.955202      20.532284      1.4229173      0.0055011948   74859.326    
     51000   1.0215759      0.0023323615  -0.00093292688  21.934681      20.41764       1.5170402      0              74759.575    
     52000   0.98079591     0.0023323615   0.0040701936   21.977374      20.520892      1.4564819      0.0020862422   75614.487    
     53000   1.0090927      0.0023323615   0.0013324753   22.095438      20.596935      1.4985027      0              74953.54     
     54000   0.97519627     0.0023323615   0.0013260734   22.070151      20.621984      1.4481665      0.026885444    75855.205    
     55000   1.1805087      0.0023323615  -0.001586238    22.424088      20.671033      1.7530554      0.024690954    75149.87     
     56000   0.98387121     0.0023323615   0.0037155145   22.104425      20.643376      1.4610487      0.01435493     74192.54     
     57000   1.0723812      0.0023323615  -0.0037916262   22.122726      20.53024       1.592486       0.013635549    73743.555    
     58000   1.0152349      0.0023323615   0.00021908047  22.082827      20.575203      1.5076238      0.00077375639  74702.734    
     59000   1.1424502      0.0023323615  -0.0052108657   22.30072       20.604182      1.6965385      0.013308184    75877.865    
     60000   1.0359703      0.0023323615  -0.00097887545  22.188218      20.649802      1.538416       0.00011346294  74008.47     
     61000   1.1646839      0.0023323615  -0.002085017    22.239945      20.51039       1.7295556      0.012918477    76847.577    
     62000   1.101836       0.0023323615   0.0010338878   22.171386      20.53516       1.6362265      0.001396566    75643.823    
     63000   0.96616435     0.0023323615   0.00097550571  21.903821      20.469067      1.4347541      0.013027663    76917.036    
     64000   1.0068907      0.0023323615  -0.0020278726   22.061652      20.566419      1.4952327      0.013750276    75466.982    
     65000   0.98723233     0.0023323615   0.0022441476   22.031073      20.565033      1.46604        0.0066686189   76049.051    
     66000   1.0273881      0.0023323615  -0.0003515278   22.183579      20.657908      1.5256713      0              74199.713    
     67000   0.96528212     0.0023323615  -0.00014822656  21.9396        20.506156      1.4334439      0.010365557    75989.413    
     68000   1.069702       0.0023323615   9.4754668e-05  22.081119      20.492611      1.5885075      0.00049153926  73125.335    
     69000   1.1229502      0.0023323615   0.0011504079   22.200329      20.532748      1.6675811      0.0068454249   75771.588    
     70000   1.0062775      0.0023323615  -0.00085311964  22.094021      20.599699      1.4943221      0.013222355    74321.869    
     71000   1.0906935      0.0023323615   0.00015260357  22.145362      20.525682      1.6196798      0.018338513    74896.684    
     72000   1.010401       0.0023323615  -6.0487182e-06  22.154105      20.653659      1.5004455      0.0013793953   73111.884    
     73000   1.1177599      0.0023323615  -0.0034084797   22.254435      20.594562      1.6598735      0.00011231735  76792.235    
     74000   0.9768019      0.0023323615   0.00016143893  22.07312       20.622569      1.4505508      0.0084515956   74866.909    
     75000   1.1360996      0.0023323615   0.002159116    22.161595      20.474487      1.6871079      0.0089909162   75362.533    
     76000   0.97379329     0.0023323615  -0.00068458621  21.988928      20.542845      1.446083       0              74645.416    
     77000   0.94876793     0.0023323615  -0.0016073976   21.923496      20.514575      1.4089204      0.017745108    74499.211    
     78000   0.83947996     0.0023323615  -0.00062768559  21.726727      20.480099      1.2466277      0.0054510099   75155.478    
     79000   1.0090614      0.0023323615  -0.00080262643  22.068192      20.569736      1.4984562      0.00023011166  75707.913    
     80000   1.1217643      0.0023323615  -0.0038177864   22.367902      20.702082      1.66582        0.032902439    75295.677    
     81000   1.0240158      0.0023323615   0.00023547123  22.031597      20.510933      1.5206635      0.0068767308   74731.596    
     82000   1.003236       0.0023323615  -0.0022802982   21.894199      20.404393      1.4898055      0.019136282    73779.639    
     83000   1.0554159      0.0023323615   0.004011718    22.104562      20.537269      1.5672927      0.0080869707   72528.187    
     84000   0.83527346     0.0023323615  -0.0034122221   21.874648      20.634267      1.2403811      0.0030083664   74637.32     
     85000   1.036002       0.0023323615   0.0013573923   21.962923      20.42446       1.5384629      0.015709144    75359.29     
     86000   0.9432002      0.0023323615  -0.0032183248   21.913588      20.512936      1.4006523      0.013730309    75374.093    
     87000   0.95566008     0.0023323615  -0.00049614223  21.91653       20.497375      1.4191552      0.0035862035   74230.613    
     88000   0.93373351     0.0023323615  -0.00097093893  21.870485      20.483891      1.3865943      0.0018212145   74193.977    
     89000   0.9684944      0.0023323615  -0.00047342045  21.973429      20.535215      1.4382142      0.00087524744  74546.233    
     90000   0.98293324     0.0023323615  -0.0032204602   22.050919      20.591263      1.4596559      0.015353933    75791.498    
     91000   1.0832827      0.0023323615   0.0048517083   22.11977       20.511095      1.6086749      0.0052867789   76737.443    
     92000   0.85899662     0.0023323615  -0.0013049519   21.765697      20.490087      1.27561        0.0024124001   75609.158    
     93000   0.96176266     0.0023323615  -4.4223672e-05  21.874222      20.446004      1.4282176      0.0045653365   76388.189    
     94000   0.96019503     0.0023323615   0.00024459347  21.944954      20.519064      1.4258896      3.8053462e-05  75637.232    
     95000   0.94702149     0.0023323615  -0.0033658915   21.86315       20.456823      1.4063269      0              76296.867    
     96000   0.91119348     0.0023323615  -0.0013197298   21.825018      20.471896      1.3531223      0.00043282989  74406.965    
     97000   1.0016687      0.0023323615  -0.0019514304   22.013024      20.525546      1.487478       0.0048369955   74563.053    
     98000   1.02143        0.0023323615  -0.0057874974   22.177965      20.661142      1.5168235      0              73650.399    
     99000   1.032786       0.0023323615   0.0018228259   21.975336      20.441649      1.5336871      7.1595851e-05  76554.872    
    100000   1.0594928      0.0023323615   0.0036169719   22.011024      20.437677      1.5733468      0.00032948157  75011.507    
    100362   1.1904942      0.0023323615  -0.00089755607  22.316856      20.548972      1.7678839      0.00063845255  74518.747    
Loop time of 1.33705 on 1 procs for 100000 steps with 100 atoms

Performance: 32309844.274 tau/day, 74791.306 timesteps/s
99.3% CPU use with 1 MPI tasks x 1 OpenMP threads

MPI task timing breakdown:
Section |  min time  |  avg time  |  max time  |%varavg| %total
---------------------------------------------------------------
Pair    | 0.053484   | 0.053484   | 0.053484   |   0.0 |  4.00
Bond    | 0.12571    | 0.12571    | 0.12571    |   0.0 |  9.40
Neigh   | 0.80715    | 0.80715    | 0.80715    |   0.0 | 60.37
Comm    | 0.056333   | 0.056333   | 0.056333   |   0.0 |  4.21
Output  | 0.001148   | 0.001148   | 0.001148   |   0.0 |  0.09
Modify  | 0.25991    | 0.25991    | 0.25991    |   0.0 | 19.44
Other   |            | 0.03332    |            |       |  2.49

Nlocal:            100 ave         100 max         100 min
Histogram: 1 0 0 0 0 0 0 0 0 0
Nghost:             60 ave          60 max          60 min
Histogram: 1 0 0 0 0 0 0 0 0 0
Neighs:             36 ave          36 max          36 min
Histogram: 1 0 0 0 0 0 0 0 0 0

Total # of neighbors = 36
Ave neighs/atom = 0.36
Ave special neighs/atom = 1.98
Neighbor list builds = 9821
Dangerous builds = 8265
unfix           nvtSoft
unfix           rampSoft
reset_timestep  0

write_data      ${outputfile_relaxed}
write_data      5_relaxed.data
System init for write_data ...
Generated 0 of 6 mixed pair_coeff terms from geometric mixing rule
WARNING: Communication cutoff 1.3 is shorter than a bond length based estimate of 1.7550000000000001. This may lead to errors. (src/comm.cpp:727)
WARNING: Not all mixed pair coeffs generated from mixing. Use write_data with 'pair ij' option to store all pair coeffs. (src/write_data.cpp:309)

###########################################################################
# Full LJ with Coulomb
######################################################################

# Cutoffs and parameters:
# - Values: Marcel Verkade's Bachelor Thesis
# - Mapping to atom groups: Patrick Onck's paper
# - 1: aliphatic, 2: aromatic, 3: anion, 4: cation
# pair_style	lj/cut/coul/cut <lj_cut_global> <coul_cut_global>
# pair_coeff	<type_1>  <type_2>  <eps>  <sigma>  <r_cut_lj>  <r_cut_coul>

# Problem: Onck's model is much more complex, and Marcel has no sigma reported
# Using sigma=1 randomly

variable		glob_ljeps equal 1.0
variable		glob_ljsig 	equal 1.0
variable		glob_coulcut equal 10.0
variable		att_ljcut equal 2.50
variable		rep_ljcut equal 1.12

pair_style		lj/cut/coul/cut 						${att_ljcut} 	${glob_coulcut}
pair_style		lj/cut/coul/cut 						2.5 	${glob_coulcut}
pair_style		lj/cut/coul/cut 						2.5 	10
pair_coeff		1 1 	${glob_ljeps} 	${glob_ljsig}	${att_ljcut} 	${glob_coulcut}
pair_coeff		1 1 	1 	${glob_ljsig}	${att_ljcut} 	${glob_coulcut}
pair_coeff		1 1 	1 	1	${att_ljcut} 	${glob_coulcut}
pair_coeff		1 1 	1 	1	2.5 	${glob_coulcut}
pair_coeff		1 1 	1 	1	2.5 	10
pair_coeff		1 2 	${glob_ljeps} 	${glob_ljsig}	${att_ljcut} 	${glob_coulcut}
pair_coeff		1 2 	1 	${glob_ljsig}	${att_ljcut} 	${glob_coulcut}
pair_coeff		1 2 	1 	1	${att_ljcut} 	${glob_coulcut}
pair_coeff		1 2 	1 	1	2.5 	${glob_coulcut}
pair_coeff		1 2 	1 	1	2.5 	10
pair_coeff		1 3 	${glob_ljeps} 	${glob_ljsig}	${rep_ljcut} 	${glob_coulcut}
pair_coeff		1 3 	1 	${glob_ljsig}	${rep_ljcut} 	${glob_coulcut}
pair_coeff		1 3 	1 	1	${rep_ljcut} 	${glob_coulcut}
pair_coeff		1 3 	1 	1	1.12 	${glob_coulcut}
pair_coeff		1 3 	1 	1	1.12 	10
pair_coeff		1 4 	${glob_ljeps} 	${glob_ljsig}	${rep_ljcut} 	${glob_coulcut}
pair_coeff		1 4 	1 	${glob_ljsig}	${rep_ljcut} 	${glob_coulcut}
pair_coeff		1 4 	1 	1	${rep_ljcut} 	${glob_coulcut}
pair_coeff		1 4 	1 	1	1.12 	${glob_coulcut}
pair_coeff		1 4 	1 	1	1.12 	10
pair_coeff		2 2 	${glob_ljeps} 	${glob_ljsig}	${att_ljcut} 	${glob_coulcut}
pair_coeff		2 2 	1 	${glob_ljsig}	${att_ljcut} 	${glob_coulcut}
pair_coeff		2 2 	1 	1	${att_ljcut} 	${glob_coulcut}
pair_coeff		2 2 	1 	1	2.5 	${glob_coulcut}
pair_coeff		2 2 	1 	1	2.5 	10
pair_coeff		2 3 	${glob_ljeps} 	${glob_ljsig}	${rep_ljcut} 	${glob_coulcut}
pair_coeff		2 3 	1 	${glob_ljsig}	${rep_ljcut} 	${glob_coulcut}
pair_coeff		2 3 	1 	1	${rep_ljcut} 	${glob_coulcut}
pair_coeff		2 3 	1 	1	1.12 	${glob_coulcut}
pair_coeff		2 3 	1 	1	1.12 	10
pair_coeff		2 4 	${glob_ljeps} 	${glob_ljsig}	${att_ljcut} 	${glob_coulcut}
pair_coeff		2 4 	1 	${glob_ljsig}	${att_ljcut} 	${glob_coulcut}
pair_coeff		2 4 	1 	1	${att_ljcut} 	${glob_coulcut}
pair_coeff		2 4 	1 	1	2.5 	${glob_coulcut}
pair_coeff		2 4 	1 	1	2.5 	10
pair_coeff		3 3 	${glob_ljeps} 	${glob_ljsig}	${rep_ljcut} 	${glob_coulcut}
pair_coeff		3 3 	1 	${glob_ljsig}	${rep_ljcut} 	${glob_coulcut}
pair_coeff		3 3 	1 	1	${rep_ljcut} 	${glob_coulcut}
pair_coeff		3 3 	1 	1	1.12 	${glob_coulcut}
pair_coeff		3 3 	1 	1	1.12 	10
pair_coeff		3 4 	${glob_ljeps} 	${glob_ljsig}	${att_ljcut} 	${glob_coulcut}
pair_coeff		3 4 	1 	${glob_ljsig}	${att_ljcut} 	${glob_coulcut}
pair_coeff		3 4 	1 	1	${att_ljcut} 	${glob_coulcut}
pair_coeff		3 4 	1 	1	2.5 	${glob_coulcut}
pair_coeff		3 4 	1 	1	2.5 	10
pair_coeff		4 4 	${glob_ljeps} 	${glob_ljsig}	${rep_ljcut} 	${glob_coulcut}
pair_coeff		4 4 	1 	${glob_ljsig}	${rep_ljcut} 	${glob_coulcut}
pair_coeff		4 4 	1 	1	${rep_ljcut} 	${glob_coulcut}
pair_coeff		4 4 	1 	1	1.12 	${glob_coulcut}
pair_coeff		4 4 	1 	1	1.12 	10


fix             noDriftRot 	all momentum 10 linear 1 1 1 angular
fix             nvt1 		all nvt temp ${Temp} ${Temp} 0.5
fix             nvt1 		all nvt temp 1 ${Temp} 0.5
fix             nvt1 		all nvt temp 1 1 0.5

# dump          assemble 	all custom 1000 				${outputfile_selfasb} id type xu yu zu vx vy vz
dump            lindump 	all custom ${subsample_rate} 	${outputfile_trajlin} id type xu yu zu vx vy vz
dump            lindump 	all custom 1000 	${outputfile_trajlin} id type xu yu zu vx vy vz
dump            lindump 	all custom 1000 	6_b_trajlin.data id type xu yu zu vx vy vz

run             ${runtime}
run             1000000
Generated 0 of 6 mixed pair_coeff terms from geometric mixing rule
Neighbor list info ...
  update every 1 steps, delay 10 steps, check yes
  max neighbors/atom: 2000, page size: 100000
  master list distance cutoff = 10.3
  ghost atom cutoff = 10.3
  binsize = 5.15, bins = 7 7 7
  1 neighbor lists, perpetual/occasional/extra = 1 0 0
  (1) pair lj/cut/coul/cut, perpetual
      attributes: half, newton on
      pair build: half/bin/newton
      stencil: half/bin/3d
      bin: standard
Per MPI rank memory allocation (min/avg/max) = 7.712 | 7.712 | 7.712 Mbytes
   Step          Temp         Density         Press          TotEng         PotEng         KinEng         E_pair         S/CPU     
         0   1.1904942      0.0023323615  -0.0014749549   21.908947      20.141063      1.7678839     -0.40727074     0            
      1000   0.99980662     0.0023323615   0.00058463023  21.211825      19.727113      1.4847128     -0.6452312      33055.171    
      2000   0.95993679     0.0023323615   0.0029015017   21.150133      19.724627      1.4255061     -0.76227845     30570.549    
      3000   0.88781573     0.0023323615  -0.0021838809   20.721541      19.403135      1.3184064     -1.0706695      25427.325    
      4000   0.93684387     0.0023323615   0.0057752812   20.675251      19.284038      1.3912131     -1.1396331      19448.66     
      5000   0.83622546     0.0023323615  -0.0023098067   20.321847      19.080053      1.2417948     -1.4374589      18564.695    
      6000   1.0832027      0.0023323615   0.0044963415   20.528634      18.920078      1.608556      -1.5189834      18071.963    
      7000   0.99889439     0.0023323615   0.0012678519   20.335241      18.851883      1.4833582     -1.6805027      18011.401    
      8000   0.87115698     0.0023323615   0.0030640699   20.17026       18.876592      1.2936681     -1.6526073      18095.225    
      9000   0.83952622     0.0023323615   0.003779759    20.126479      18.879782      1.2466964     -1.6201315      17978.822    
     10000   1.1443132      0.0023323615   0.0019425432   20.872303      19.172998      1.6993051     -1.4721764      18040.482    
     11000   0.97404413     0.0023323615  -0.003725955    20.592745      19.146289      1.4464555     -1.4354055      18135.53     
     12000   1.0397864      0.0023323615   0.0059407819   20.46252       18.918437      1.5440828     -1.5998024      18277.138    
     13000   0.9604532      0.0023323615   0.0022315285   20.516284      19.090011      1.426273      -1.5240595      18286.966    
     14000   0.94597394     0.0023323615  -0.0026271355   20.226477      18.821706      1.4047713     -1.5680551      18316.286    
     15000   0.83472196     0.0023323615   0.001266461    20.356195      19.116633      1.2395621     -1.479987       18300.844    
     16000   1.128507       0.0023323615   0.00037285339  20.635478      18.959645      1.6758328     -1.5208801      18433.526    
     17000   0.94934878     0.0023323615  -0.0012784107   20.367707      18.957924      1.4097829     -1.5174248      18392.314    
     18000   1.0907721      0.0023323615   0.0045062462   20.398247      18.778451      1.6197965     -1.715137       18401.702    
     19000   0.96329353     0.0023323615  -0.0023661397   20.502577      19.072086      1.4304909     -1.4605516      18369.624    
     20000   0.857577       0.0023323615  -0.0023164767   20.27734       19.003838      1.2735018     -1.3762044      18479.031    
     21000   0.89994907     0.0023323615  -0.0024807488   20.518591      19.182166      1.3364244     -1.3957097      18417.614    
     22000   0.93071479     0.0023323615   0.00071228677  20.464681      19.08257       1.3821115     -1.512164       18429.819    
     23000   0.99159828     0.0023323615  -0.00068913287  20.246026      18.773503      1.4725234     -1.7053241      18313.681    
     24000   1.023727       0.0023323615   0.0017854711   20.416628      18.896393      1.5202346     -1.5655746      14930.105    
     25000   1.1385633      0.0023323615   0.0022915141   20.852124      19.161358      1.6907665     -1.3505729      18290.934    
     26000   0.9592783      0.0023323615  -0.0024524407   20.322208      18.89768       1.4245283     -1.6960749      18389.308    
     27000   0.91318975     0.0023323615  -0.0025101524   20.235524      18.879437      1.3560868     -1.6333346      18354.37     
     28000   0.92259557     0.0023323615   0.0018388014   20.433274      19.06322       1.3700544     -1.5040663      18363.132    
     29000   0.97462074     0.0023323615   0.00015797353  20.721418      19.274106      1.4473118     -1.4651737      18373.049    
     30000   0.99965497     0.0023323615  -0.0043576378   20.554486      19.069999      1.4844876     -1.5218586      18340.795    
     31000   0.88532803     0.0023323615   0.00092433279  20.243596      18.928884      1.3147121     -1.6882245      18338.89     
     32000   1.058286       0.0023323615   0.001148972    20.477109      18.905555      1.5715547     -1.598285       18316.595    
     33000   0.97708671     0.0023323615   0.0015357544   20.464296      19.013322      1.4509738     -1.5285178      18342.955    
     34000   1.0024034      0.0023323615  -0.00019144456  20.528024      19.039455      1.4885691     -1.4701213      18255.326    
     35000   0.93797099     0.0023323615  -0.0026261426   20.515675      19.122788      1.3928869     -1.3966573      18493.243    
     36000   1.069681       0.0023323615   0.0016097641   20.833331      19.244855      1.5884762     -1.3078075      18509.358    
     37000   0.93758108     0.0023323615   0.0058577902   20.673428      19.28112       1.3923079     -1.2551309      18511.249    
     38000   1.0656454      0.0023323615  -0.0019581967   20.739509      19.157026      1.5824834     -1.2840528      18411.56     
     39000   0.95819856     0.0023323615   0.0025087517   20.894145      19.47122       1.4229249     -1.1207577      18369.871    
     40000   1.0772656      0.0023323615   0.0011278636   20.75798       19.15824       1.5997395     -1.2980704      18332.279    
     41000   1.0021014      0.0023323615   0.0025208751   20.53311       19.044989      1.4881205     -1.3963385      18510.985    
     42000   1.1380203      0.0023323615  -0.0015408794   20.95848       19.26852       1.6899601     -1.3046489      18815.237    
     43000   1.1562774      0.0023323615  -0.0035352555   20.834559      19.117487      1.7170719     -1.5033301      18342.942    
     44000   1.0959434      0.0023323615   0.0013919878   20.13087       18.503394      1.627476      -1.9171876      18098.322    
     45000   1.0220161      0.0023323615   0.0013080293   20.498249      18.980555      1.5176939     -1.5060767      18275.676    
     46000   1.0822213      0.0023323615  -0.00032159945  20.592266      18.985167      1.6070987     -1.4813213      18416.285    
     47000   0.97842645     0.0023323615  -0.0032501469   20.781976      19.329013      1.4529633     -1.1678353      18573.805    
     48000   0.96495375     0.0023323615   0.0011214686   20.560796      19.12784       1.4329563     -1.3615857      18534.386    
     49000   0.99503129     0.0023323615   0.0019712038   20.652196      19.174575      1.4776215     -1.3422791      18381.038    
     50000   1.0385645      0.0023323615  -0.00016425369  20.726858      19.18459       1.5422682     -1.3835526      18468.913    
     51000   1.0771208      0.0023323615  -0.0012447536   20.871644      19.27212       1.5995243     -1.274781       18561.353    
     52000   1.0100668      0.0023323615  -0.003173117    20.467723      18.967774      1.4999492     -1.5020276      18558.271    
     53000   0.98538118     0.0023323615   0.0031218832   20.59798       19.134689      1.463291      -1.4227636      18395.845    
     54000   0.94714339     0.0023323615  -0.0025419634   20.445756      19.039248      1.4065079     -1.3859503      18261.472    
     55000   1.0428002      0.0023323615  -0.0019631337   20.846524      19.297966      1.5485583     -1.236942       18371.981    
     56000   1.1936466      0.0023323615   0.0019433038   20.904874      19.132309      1.7725651     -1.3261972      18516.009    
     57000   0.96975513     0.0023323615  -0.00052591528  20.404808      18.964721      1.4400864     -1.6407821      18293.053    
     58000   1.0341561      0.0023323615   0.0010065021   20.628165      19.092443      1.5357219     -1.5354894      18403.43     
     59000   0.9721942      0.0023323615  -0.0030027469   20.362656      18.918948      1.4437084     -1.6335743      18304.744    
     60000   1.0287422      0.0023323615   0.0013841601   20.502351      18.974669      1.5276822     -1.6594146      18329.575    
     61000   0.99781594     0.0023323615  -0.0020491847   20.679589      19.197833      1.4817567     -1.4308114      18365.403    
     62000   0.99806463     0.0023323615  -0.0015677916   20.752305      19.270179      1.482126      -1.2451773      18419.656    
     63000   1.175135       0.0023323615   0.0011316098   20.83773       19.092655      1.7450754     -1.3147547      18520.829    
     64000   0.98722125     0.0023323615   0.003338637    20.890964      19.424941      1.4660236     -1.2347279      18505.247    
     65000   1.1613438      0.0023323615  -0.0047494613   20.83693       19.112334      1.7245956     -1.3113005      18349.49     
     66000   1.0022952      0.0023323615  -0.0001931676   20.430593      18.942185      1.4884083     -1.474378       18422.536    
     67000   0.93502493     0.0023323615   0.0020612379   20.403124      19.014612      1.388512      -1.5468415      18336.223    
     68000   1.0034513      0.0023323615  -0.0036963644   20.650503      19.160378      1.4901252     -1.4935063      18398.762    
     69000   1.0777521      0.0023323615   0.0038164054   20.695754      19.095292      1.6004619     -1.4718403      18379.88     
     70000   1.0018582      0.0023323615   0.00012662845  20.606509      19.118749      1.4877594     -1.4239891      18234.066    
     71000   1.151708       0.0023323615  -0.0011981062   20.76254       19.052254      1.7102864     -1.4073887      18314.367    
     72000   0.97961542     0.0023323615  -0.0016650103   20.461049      19.006321      1.4547289     -1.5088867      18292.929    
     73000   0.96900821     0.0023323615   0.0013337295   20.226587      18.787609      1.4389772     -1.7045628      18137.49     
     74000   0.97978192     0.0023323615  -4.1809533e-05  20.463511      19.008535      1.4549761     -1.5704795      18303.059    
     75000   1.029966       0.0023323615   0.0030428896   20.647427      19.117927      1.5294996     -1.4563461      18299.358    
     76000   0.95158348     0.0023323615  -0.002184727    20.432493      19.019392      1.4131015     -1.514582       18368.806    
     77000   0.94566276     0.0023323615   0.0028501176   20.491845      19.087536      1.4043092     -1.3932433      18253.577    
     78000   1.0723123      0.0023323615   0.00088816799  20.980423      19.388039      1.5923837     -1.2355718      18372.982    
     79000   1.0004683      0.0023323615   0.00035902178  20.826292      19.340596      1.4856954     -1.3939223      18549.042    
     80000   0.95193517     0.0023323615   0.0025246229   20.374985      18.961361      1.4136237     -1.4274265      18397.768    
     81000   1.032595       0.0023323615   0.0003080579   20.562775      19.029372      1.5334036     -1.3459672      18474.472    
     82000   1.0053249      0.0023323615   0.001227712    20.566026      19.073119      1.4929074     -1.577848       18394.778    
     83000   1.0193248      0.0023323615   0.0030784495   20.542042      19.028345      1.5136973     -1.4233349      18394.822    
     84000   1.1147034      0.0023323615   0.00074888535  20.840365      19.185031      1.6553346     -1.3712065      18398.3      
     85000   0.97861292     0.0023323615  -0.0014918399   20.379672      18.926432      1.4532402     -1.5212129      18340.07     
     86000   0.99568246     0.0023323615  -5.5281544e-05  20.527008      19.04842       1.4785884     -1.4029396      18334.373    
     87000   0.91136318     0.0023323615   0.0019183345   20.726566      19.373191      1.3533743     -1.0755252      18411.506    
     88000   1.0185474      0.0023323615  -0.0011780865   20.665709      19.153166      1.5125429     -1.2903027      18573.138    
     89000   1.0861529      0.0023323615   0.00015354426  21.02988       19.416943      1.6129371     -1.3045306      18428.556    
     90000   0.99398034     0.0023323615  -0.000524129    20.394005      18.917945      1.4760608     -1.4798417      18383.855    
     91000   0.95022753     0.0023323615   0.00083232924  20.530934      19.119846      1.4110879     -1.3386258      18480.913    
     92000   1.1665324      0.0023323615   0.0042269861   21.201025      19.468724      1.7323007     -1.0028364      18530.959    
     93000   1.1416695      0.0023323615  -0.0024337811   20.881391      19.186012      1.6953793     -1.2670839      18693.076    
     94000   1.0181491      0.0023323615  -0.0011899664   20.605458      19.093507      1.5119514     -1.439079       18535.081    
     95000   1.0691752      0.0023323615   0.002116268    20.639323      19.051598      1.5877252     -1.4657021      18625.152    
     96000   1.0154394      0.0023323615  -0.00089622234  20.37967       18.871743      1.5079276     -1.5666735      18431.65     
     97000   1.031994       0.0023323615  -0.0015847104   20.694344      19.161833      1.5325111     -1.3960029      18272.768    
     98000   0.94476184     0.0023323615   0.00018110777  20.462022      19.059051      1.4029713     -1.4786806      18336.795    
     99000   0.99604672     0.0023323615  -0.0025780409   20.682656      19.203527      1.4791294     -1.2751133      18488.694    
    100000   1.1731929      0.0023323615  -0.0012294472   21.052705      19.310514      1.7421914     -1.1508416      18580.658    
    101000   1.0098586      0.0023323615   0.002877032    20.586208      19.086568      1.49964       -1.4018899      18496.029    
    102000   0.98238463     0.0023323615   0.0017001603   20.541397      19.082556      1.4588412     -1.4049121      18420.5      
    103000   1.0125013      0.0023323615  -0.0016465583   20.699352      19.195787      1.5035645     -1.3477171      18389.643    
    104000   0.91438501     0.0023323615  -0.0012047515   20.644433      19.286571      1.3578617     -1.3125656      18395.683    
    105000   0.8827379      0.0023323615   0.00058731795  20.40094       19.090074      1.3108658     -1.3861211      18462.299    
    106000   0.9533947      0.0023323615  -0.0024338095   20.592532      19.176741      1.4157911     -1.3133992      18506.266    
    107000   1.0156017      0.0023323615   0.0032544855   20.342179      18.83401       1.5081686     -1.5869688      18251.585    
    108000   0.97345241     0.0023323615   0.0022710525   20.446268      19.000691      1.4455768     -1.4233027      18352.597    
    109000   0.96966161     0.0023323615  -0.0039469028   20.746456      19.306509      1.4399475     -1.272373       18411.9      
    110000   1.0382741      0.0023323615  -0.0035125568   20.524641      18.982804      1.5418371     -1.5086603      18322.621    
    111000   0.95148815     0.0023323615   0.00012247549  20.310661      18.897701      1.4129599     -1.5766152      18310.251    
    112000   1.0479425      0.0023323615   0.00040175456  20.555358      18.999163      1.5561945     -1.4984546      18419.589    
    113000   1.0331425      0.0023323615   0.0022738351   20.44232       18.908103      1.5342166     -1.6138151      18228.089    
    114000   0.97103928     0.0023323615   0.00074661751  20.418878      18.976885      1.4419933     -1.5164443      18280.235    
    115000   0.97584507     0.0023323615   0.0026651322   20.292369      18.843239      1.4491299     -1.515805       18383.499    
    116000   0.91202741     0.0023323615  -0.0039456137   20.252119      18.897758      1.3543607     -1.5761106      18181.69     
    117000   1.1138644      0.0023323615   0.0064880628   20.572145      18.918057      1.6540886     -1.5491104      18329.707    
    118000   1.0933614      0.0023323615   0.00078285706  20.959321      19.335679      1.6236417     -1.2290122      18304.432    
    119000   1.0131296      0.0023323615   0.0019094488   20.565613      19.061115      1.5044975     -1.4888983      18400.807    
    120000   0.95832463     0.0023323615   0.0036602819   20.464117      19.041005      1.4231121     -1.4245068      18568.041    
    121000   1.0329058      0.0023323615  -0.0023073097   20.617726      19.083861      1.5338651     -1.4583239      18621.253    
    122000   1.1085149      0.0023323615  -0.0014903751   20.838999      19.192854      1.6461447     -1.3597321      18496.601    
    123000   1.0775659      0.0023323615  -0.0025504852   20.421711      18.821526      1.6001854     -1.5894548      18502.869    
    124000   0.88963859     0.0023323615   0.00078808497  20.594121      19.273008      1.3211133     -1.3393295      18433.366    
    125000   0.85091239     0.0023323615   0.0044429676   20.115708      18.852103      1.2636049     -1.6442154      18447.122    
    126000   0.95009956     0.0023323615   0.0026610757   20.452885      19.041988      1.4108978     -1.4255729      18113.89     
    127000   0.92760422     0.0023323615   0.0030066629   20.265768      18.888276      1.3774923     -1.5599815      18268.782    
    128000   1.0790281      0.0023323615   0.0036633856   20.69629       19.093934      1.6023567     -1.4698858      18359.423    
    129000   0.93965487     0.0023323615   0.00010931681  20.27767       18.882282      1.3953875     -1.5992524      18452.725    
    130000   1.0638195      0.0023323615   0.0031725992   20.559538      18.979766      1.5797719     -1.6285369      18411.163    
    131000   0.96130405     0.0023323615  -0.0012849106   20.443486      19.01595       1.4275365     -1.6324894      18317.997    
    132000   0.85760561     0.0023323615   0.00022510225  20.250796      18.977252      1.2735443     -1.4930483      18333.333    
    133000   1.1059025      0.0023323615  -0.00021784355  20.792155      19.14989       1.6422652     -1.3337969      18402.222    
    134000   0.87695524     0.0023323615  -0.00071580733  20.394737      19.092458      1.3022785     -1.4902223      18582.602    
    135000   0.94558872     0.0023323615   0.00080990351  20.384432      18.980233      1.4041992     -1.5785536      18422.587    
    136000   1.0571336      0.0023323615  -0.0012655002   20.728101      19.158258      1.5698434     -1.3229561      18499.063    
    137000   0.91688734     0.0023323615  -0.0016165624   20.399296      19.037719      1.3615777     -1.510942       18468.927    
    138000   0.93774132     0.0023323615   0.0015890793   20.320702      18.928156      1.3925459     -1.5961242      18400.149    
    139000   0.97669345     0.0023323615   0.00013021999  20.369337      18.918947      1.4503898     -1.5191189      18495.96     
    140000   1.0781515      0.0023323615   0.00017511855  20.576462      18.975407      1.601055      -1.5419903      18383.049    
    141000   0.89623012     0.0023323615  -0.0025170826   20.249107      18.918205      1.3309017     -1.6480872      18339.16     
    142000   1.3445151      0.0023323615   0.002290906    20.947255      18.95065       1.996605      -1.5816286      18345.676    
    143000   0.95818306     0.0023323615  -0.00076692957  20.575169      19.152267      1.4229018     -1.4187888      18506.516    
    144000   1.0140816      0.0023323615   0.00035277918  20.44301       18.937099      1.5059112     -1.4842306      18401.652    
    145000   1.0072132      0.0023323615  -0.00093110873  20.860451      19.364739      1.4957117     -1.2391509      18591.629    
    146000   0.89324531     0.0023323615  -0.0029309807   20.496888      19.170419      1.3264693     -1.4101869      18485.848    
    147000   1.0309083      0.0023323615  -0.0012993459   20.712034      19.181135      1.5308988     -1.439469       18349.48     
    148000   1.108513       0.0023323615  -0.00019292079  20.799432      19.15329       1.6461418     -1.4474754      18165.813    
    149000   1.0927747      0.0023323615  -0.0017386802   20.314666      18.691896      1.6227704     -1.7286384      18323.421    
    150000   1.0573103      0.0023323615   0.00086096738  20.500663      18.930557      1.5701058     -1.5226053      18221.095    
    151000   0.95610941     0.0023323615  -0.0014998774   20.600298      19.180476      1.4198225     -1.5056173      18271.561    
    152000   1.0810582      0.0023323615   0.0027000829   20.645793      19.040422      1.6053714     -1.3906474      18319.826    
    153000   0.91431006     0.0023323615  -0.0022201199   20.730795      19.373045      1.3577504     -1.2907766      18532.294    
    154000   0.97948003     0.0023323615   0.00041875015  20.46525       19.010722      1.4545278     -1.5541276      18471.149    
    155000   1.0338655      0.0023323615   0.0035718298   20.688527      19.153237      1.5352902     -1.4571844      18473.876    
    156000   0.83626508     0.0023323615   0.0053433009   20.029784      18.787931      1.2418536     -1.6035426      18437.928    
    157000   1.1471879      0.0023323615   0.0003554171   20.748479      19.044905      1.7035741     -1.5315239      18336.533    
    158000   1.0782199      0.0023323615  -0.00082803994  20.530964      18.929808      1.6011565     -1.5548262      18507.717    
    159000   1.0681817      0.0023323615   0.0011201      20.63849       19.052241      1.5862498     -1.4501599      18250.143    
    160000   0.94256997     0.0023323615  -0.0001328114   20.404633      19.004917      1.3997164     -1.5609058      18344.067    
    161000   1.0530802      0.0023323615   0.0027025544   20.610538      19.046714      1.5638241     -1.3991436      18360.45     
    162000   0.88636905     0.0023323615   0.0016942289   20.442167      19.125909      1.316258      -1.371188       18361.585    
    163000   0.95450378     0.0023323615  -0.0018631439   20.598538      19.1811        1.4174381     -1.3506994      18341.148    
    164000   1.01747        0.0023323615  -0.0032038114   20.674134      19.163191      1.5109429     -1.2293808      18406.124    
    165000   1.0646168      0.0023323615  -0.0030950506   21.022634      19.441678      1.5809559     -1.0719784      18563.718    
    166000   0.86170818     0.0023323615  -0.0011529277   20.300829      19.021192      1.2796366     -1.4593368      18318.346    
    167000   0.90897297     0.0023323615   0.00087718531  20.342871      18.993046      1.3498249     -1.5018285      18372.633    
    168000   0.98619592     0.0023323615   0.0036142795   20.385974      18.921473      1.4645009     -1.4463429      18294.696    
    169000   1.050216       0.0023323615   0.00074643364  20.834619      19.275049      1.5595707     -1.3368162      18296.614    
    170000   0.86359025     0.0023323615  -0.0041936707   20.421819      19.139388      1.2824315     -1.403892       18397.446    
    171000   1.0270464      0.0023323615   0.0042724628   20.41667       18.891506      1.5251639     -1.7353385      18262.862    
    172000   1.1815659      0.0023323615  -0.0010396698   20.846797      19.092171      1.7546254     -1.4450481      18175.469    
    173000   1.1629959      0.0023323615   0.002076554    20.639783      18.912734      1.727049      -1.6584453      18308.457    
    174000   0.99781177     0.0023323615   0.0026654882   20.522179      19.040429      1.4817505     -1.4951721      18218.178    
    175000   0.93284092     0.0023323615  -0.004274592    20.392013      19.006745      1.3852688     -1.5069005      18193.899    
    176000   0.97420168     0.0023323615   0.0010771594   20.686028      19.239339      1.4466895     -1.3004854      18222.103    
    177000   1.1132597      0.0023323615   0.0034485487   20.623831      18.97064       1.6531907     -1.6524209      18161.787    
    178000   1.0867163      0.0023323615  -0.00061782902  20.698797      19.085023      1.6137737     -1.385963       18252.062    
    179000   0.92032531     0.0023323615  -0.0017736111   20.560947      19.194264      1.3666831     -1.3611026      18217.659    
    180000   0.91489825     0.0023323615  -0.00032823367  20.838711      19.480087      1.3586239     -1.1709497      18356.249    
    181000   0.8353519      0.0023323615  -0.0031774626   20.512403      19.271906      1.2404976     -1.2464147      18429.394    
    182000   0.98238962     0.0023323615   0.00044848294  20.818138      19.35929       1.4588486     -1.1367463      18354.788    
    183000   1.1441651      0.0023323615   0.0024704449   21.082899      19.383814      1.6990851     -1.1335452      18677.584    
    184000   1.1420141      0.0023323615   0.0010962665   21.072311      19.37642       1.695891      -1.2165006      18699.321    
    185000   0.89059813     0.0023323615   0.0025766651   20.339844      19.017306      1.3225382     -1.5479386      18216.097    
    186000   0.99302478     0.0023323615   0.00057998596  20.495989      19.021347      1.4746418     -1.4607645      18100.028    
    187000   1.0758109      0.0023323615   0.00076398605  20.761096      19.163516      1.5975793     -1.5010032      18123.659    
    188000   0.974281       0.0023323615  -0.0018562322   20.572793      19.125986      1.4468073     -1.4953158      18181.359    
    189000   1.087236       0.0023323615   0.00029831059  20.533325      18.918779      1.6145455     -1.5835124      18103.903    
    190000   0.87419866     0.0023323615   0.0017978439   20.425898      19.127713      1.298185      -1.3896074      18265.629    
    191000   0.93474022     0.0023323615   0.0026440622   20.166847      18.778758      1.3880892     -1.6800777      18377.051    
    192000   1.0399292      0.0023323615   0.00015822117  20.414977      18.870682      1.5442948     -1.7133477      18360.673    
    193000   1.0193239      0.0023323615  -0.00052895169  20.380927      18.867231      1.513696      -1.6353134      18181.935    
    194000   1.0770641      0.0023323615  -0.0023296326   20.517404      18.917964      1.5994402     -1.7448542      18317.338    
    195000   1.0259503      0.0023323615   0.001466766    20.775131      19.251595      1.5235362     -1.3214497      18279.093    
    196000   0.89944242     0.0023323615   0.0016786934   20.310841      18.975169      1.335672      -1.5861708      18430.823    
    197000   1.0286279      0.0023323615  -0.0017321925   20.91424       19.386727      1.5275124     -1.1863904      18518.286    
    198000   0.96739224     0.0023323615   0.0023717222   20.589786      19.153209      1.4365775     -1.3439918      18567.734    
    199000   1.0225681      0.0023323615   0.003551984    20.679874      19.16136       1.5185136     -1.3873684      18700.431    
    200000   1.1056601      0.0023323615   0.0039992938   20.327172      18.685266      1.6419052     -1.7287148      18494.165    
    201000   0.99875293     0.0023323615  -0.0010379355   20.555479      19.072331      1.4831481     -1.527953       18349.78     
    202000   0.98667475     0.0023323615   0.00053658504  20.597758      19.132546      1.465212      -1.3571027      18251.184    
    203000   0.94614765     0.0023323615  -0.00044975529  20.435321      19.030292      1.4050293     -1.5608518      18430.329    
    204000   1.0622208      0.0023323615  -0.0007283924   20.39297       18.815572      1.5773979     -1.6968637      18348.185    
    205000   0.96092208     0.0023323615   0.0010238561   20.341628      18.914659      1.4269693     -1.5641661      18476.958    
    206000   1.0557869      0.0023323615  -0.0013143769   20.591149      19.023306      1.5678436     -1.4824622      18413.778    
    207000   1.0483508      0.0023323615  -0.00075454011  20.64437       19.087569      1.5568009     -1.4959421      18461.463    
    208000   1.0429075      0.0023323615   9.181497e-05   20.603736      19.055018      1.5487176     -1.4637347      18571.565    
    209000   1.0042968      0.0023323615   0.00068978728  20.610242      19.118861      1.4913807     -1.4789988      18567.008    
    210000   1.0154179      0.0023323615  -0.00020982465  20.434188      18.926292      1.5078955     -1.6171418      18446.819    
    211000   0.91667459     0.0023323615  -0.0048869354   20.215928      18.854666      1.3612618     -1.6170199      18406.457    
    212000   0.94986155     0.0023323615  -0.00067486961  20.521597      19.111053      1.4105444     -1.4463926      18368.407    
    213000   0.87762444     0.0023323615  -0.0014852479   20.374543      19.07127       1.3032723     -1.4167274      18395.462    
    214000   0.87288364     0.0023323615  -0.0034644726   20.522899      19.226667      1.2962322     -1.3368896      18688.022    
    215000   0.98215348     0.0023323615  -0.0027589102   20.414113      18.955615      1.4584979     -1.6200327      18456.38     
    216000   0.97370355     0.0023323615   0.0035104699   20.639591      19.193641      1.4459498     -1.5224413      18519.166    
    217000   0.96293254     0.0023323615  -0.0011750632   20.571783      19.141828      1.4299548     -1.4231522      18545.341    
    218000   0.99544246     0.0023323615  -0.0020143115   20.625699      19.147467      1.4782321     -1.3494756      18558.72     
    219000   0.94601598     0.0023323615  -0.0037708138   20.459127      19.054293      1.4048337     -1.4541117      18599.708    
    220000   1.1148346      0.0023323615   0.00057216386  21.011817      19.356287      1.6555294     -1.2893709      18617.019    
    221000   1.1968899      0.0023323615  -0.0018032854   20.946304      19.168922      1.7773816     -1.3328685      18509.09     
    222000   0.90827535     0.0023323615   0.00043391474  20.479738      19.130949      1.3487889     -1.343466       18687.48     
    223000   0.94145768     0.0023323615  -0.0032555715   20.565101      19.167036      1.3980647     -1.3592287      18689.614    
    224000   0.81378316     0.0023323615   0.0011101275   20.08885       18.880382      1.208468      -1.5754687      18503.501    
    225000   1.0147414      0.0023323615  -0.00022577198  20.61927       19.112379      1.5068909     -1.3756264      18493.798    
    226000   1.045403       0.0023323615  -0.0020223524   20.421615      18.869192      1.5524235     -1.6756292      18424.029    
    227000   0.93655413     0.0023323615  -0.0034738192   20.509002      19.118219      1.3907829     -1.5051898      18408.008    
    228000   1.0493934      0.0023323615  -0.0031883543   20.799143      19.240793      1.5583491     -1.3576443      18490.447    
    229000   0.96005425     0.0023323615   0.0012679013   20.287128      18.861447      1.4256806     -1.6037321      18317.251    
    230000   0.95763493     0.0023323615  -0.0017039992   20.551977      19.129889      1.4220879     -1.4559305      18270.879    
    231000   0.98962907     0.0023323615   0.004225517    20.546074      19.076475      1.4695992     -1.538316       18288.501    
    232000   0.8747534      0.0023323615  -0.0030964616   20.455658      19.156649      1.2990088     -1.4025821      18372.759    
    233000   0.9228484      0.0023323615   0.0042943507   20.524086      19.153656      1.3704299     -1.3718431      18282.2      
    234000   1.0652221      0.0023323615   0.0037500603   20.873401      19.291546      1.5818549     -1.2302991      18290.013    
    235000   1.0834784      0.0023323615   0.0027551079   20.719661      19.110695      1.6089654     -1.4296221      18436.076    
    236000   1.1809871      0.0023323615  -0.00071941915  20.900095      19.146329      1.7537658     -1.2858163      18766.369    
    237000   1.0569146      0.0023323615   0.0040740247   20.66409       19.094571      1.5695182     -1.4900678      18475.751    
    238000   1.146545       0.0023323615  -0.0004417981   20.646301      18.943682      1.7026193     -1.6300563      18351.309    
    239000   1.0663918      0.0023323615   0.0017319475   20.406612      18.82302       1.5835918     -1.7899919      18316.951    
    240000   0.98288581     0.0023323615   0.0021159488   20.583026      19.123441      1.4595854     -1.3998308      18381.434    
    241000   1.1405833      0.0023323615  -0.0011071286   20.826846      19.133079      1.6937662     -1.443676       18413.265    
    242000   0.98573001     0.0023323615   0.0013697969   20.522563      19.058754      1.4638091     -1.451456       18547.115    
    243000   0.99836726     0.0023323615  -0.0033657362   20.69094       19.208365      1.4825754     -1.3447135      18454.452    
    244000   1.0901624      0.0023323615  -3.0300485e-06  20.800374      19.181483      1.6188911     -1.3522121      18468.106    
    245000   1.034332       0.0023323615   0.00029092967  21.206763      19.67078       1.535983      -1.0653016      18590.469    
    246000   0.98636076     0.0023323615  -0.00049992661  20.697944      19.233198      1.4647457     -1.3322003      18687.76     
    247000   1.0634167      0.0023323615   0.0022044723   20.519753      18.940579      1.5791737     -1.3681519      18562.982    
    248000   0.97356898     0.0023323615  -0.00066380489  20.216053      18.770303      1.4457499     -1.5958064      18511.119    
    249000   0.95711305     0.0023323615   0.0018455144   20.47575       19.054437      1.4213129     -1.4309666      18430.217    
    250000   0.93617488     0.0023323615  -0.0035553622   20.447724      19.057504      1.3902197     -1.5137356      18296.718    
    251000   1.0981939      0.0023323615  -0.0022802201   20.884123      19.253305      1.630818      -1.368453       18248.088    
    252000   1.1353316      0.0023323615   0.002861854    20.661554      18.975587      1.6859675     -1.4661574      18404.831    
    253000   0.97444004     0.0023323615   0.0026731245   20.322562      18.875518      1.4470435     -1.5554376      18312.902    
    254000   0.87816739     0.0023323615   0.0026000986   20.440081      19.136002      1.3040786     -1.3741982      18263.554    
    255000   0.88313619     0.0023323615   0.0002091794   20.311043      18.999585      1.3114572     -1.5001501      18531.551    
    256000   0.91747519     0.0023323615   0.0019220664   20.499466      19.137015      1.3624507     -1.3739698      18366.518    
    257000   1.0204103      0.0023323615   0.00058180359  20.460596      18.945287      1.5153093     -1.5911625      18503.816    
    258000   0.87594633     0.0023323615  -0.0012843954   20.362525      19.061745      1.3007803     -1.4467799      18500.962    
    259000   0.96922624     0.0023323615   0.0015159683   20.415874      18.976573      1.439301      -1.5316725      18303.737    
    260000   0.89975569     0.0023323615   0.0012274485   20.371858      19.03572       1.3361372     -1.486218       18307.326    
    261000   0.85648577     0.0023323615  -0.0026269465   20.355355      19.083474      1.2718814     -1.4606907      18335.404    
    262000   0.95346511     0.0023323615   0.00055385072  20.27207       18.856174      1.4158957     -1.6435749      18192.852    
    263000   0.98136419     0.0023323615   0.0036327132   20.592757      19.135432      1.4573258     -1.4416132      18309.895    
    264000   0.93930434     0.0023323615  -0.0021401449   20.456721      19.061854      1.3948669     -1.3429011      18298.828    
    265000   1.0451507      0.0023323615   0.0019501375   20.91593       19.363881      1.5520488     -1.2582638      18236.985    
    266000   1.1071117      0.0023323615   0.0056196423   20.593712      18.949651      1.6440609     -1.5963436      18323.158    
    267000   1.0183175      0.0023323615  -0.0012636615   20.666769      19.154568      1.5122014     -1.3903233      18242.351    
    268000   1.0140558      0.0023323615  -0.000326645    20.604882      19.099009      1.5058728     -1.4231685      18319.947    
    269000   1.1263283      0.0023323615   0.002143436    20.633156      18.960558      1.6725975     -1.6140163      18337.128    
    270000   0.87552433     0.0023323615   0.006350704    20.437084      19.136931      1.3001536     -1.523783       18152.347    
    271000   0.88317838     0.0023323615   0.0017392946   20.12505       18.81353       1.3115199     -1.7155578      18248.711    
    272000   1.0082161      0.0023323615   0.003477495    20.231564      18.734363      1.4972009     -1.6571869      18275.01     
    273000   0.98945937     0.0023323615   0.0011760714   20.57676       19.107413      1.4693472     -1.5208296      18270.404    
    274000   1.0764685      0.0023323615  -0.0016710564   20.548006      18.94945       1.5985557     -1.5711846      18485.407    
    275000   1.0509485      0.0023323615  -0.00050168842  20.668979      19.10832       1.5606586     -1.4095941      18366.751    
    276000   0.89215356     0.0023323615   3.9366864e-05  20.294079      18.969231      1.324848      -1.4357158      18440.19     
    277000   0.89645933     0.0023323615  -0.0020350758   20.562403      19.23116       1.3312421     -1.2402409      18385.954    
    278000   0.93044857     0.0023323615   0.0026893674   20.430948      19.049232      1.3817161     -1.3578007      18464.97     
    279000   1.0840949      0.0023323615   0.00014283296  20.689099      19.079218      1.609881      -1.2571161      18654.747    
    280000   1.1277924      0.0023323615   0.0027425546   20.871169      19.196397      1.6747718     -1.25629        18430.799    
    281000   0.96172115     0.0023323615   0.0015020423   20.770979      19.342823      1.4281559     -1.3490317      18465.965    
    282000   0.9835535      0.0023323615   0.00081460819  20.90717       19.446593      1.4605769     -1.1828246      18848.226    
    283000   0.90578517     0.0023323615   0.0044108168   20.679655      19.334564      1.345091      -1.1836597      18788.26     
    284000   0.9753632      0.0023323615   0.0015212622   20.356276      18.907861      1.4484144     -1.4807251      18441.403    
    285000   0.90813574     0.0023323615   0.00018458088  20.670033      19.321451      1.3485816     -1.2443807      18465.527    
    286000   0.90579638     0.0023323615  -0.00035879615  20.47635       19.131243      1.3451076     -1.38238        18360.535    
    287000   0.94374122     0.0023323615  -0.0037985648   20.574334      19.172879      1.4014557     -1.3847509      18276.797    
    288000   1.0463796      0.0023323615  -0.0014315625   20.377649      18.823775      1.5538737     -1.6518255      18254.806    
    289000   0.86675908     0.0023323615  -0.0025305324   20.185191      18.898053      1.2871372     -1.6879055      18281.387    
    290000   0.96905288     0.0023323615   0.0013776148   20.594418      19.155374      1.4390435     -1.3134317      18478.432    
    291000   0.81351653     0.0023323615   0.00043223896  20.232881      19.024809      1.208072      -1.483617       18484.178    
    292000   0.95636726     0.0023323615  -0.0024771978   20.504621      19.084416      1.4202054     -1.4556515      18447.698    
    293000   1.0431558      0.0023323615   0.0055464253   20.639769      19.090682      1.5490864     -1.5082195      18456.069    
    294000   1.0529728      0.0023323615   0.0025529548   20.695785      19.13212       1.5636646     -1.4646887      18470.796    
    295000   0.93072627     0.0023323615   0.0033711126   20.391991      19.009862      1.3821285     -1.4130545      18437.128    
    296000   1.0073324      0.0023323615  -0.00045549974  20.445447      18.949559      1.4958886     -1.5683545      18429.091    
    297000   0.91621172     0.0023323615   0.0012986215   20.648233      19.287659      1.3605744     -1.2742579      18432.283    
    298000   0.97466948     0.0023323615  -0.00028072223  20.435988      18.988604      1.4473842     -1.5937417      18452.961    
    299000   1.0050481      0.0023323615  -0.0026318335   20.593879      19.101383      1.4924964     -1.4152848      18308.505    
    300000   1.1633496      0.0023323615  -0.0065116759   20.618628      18.891054      1.7275742     -1.6595931      18351.41     
    301000   1.0557867      0.0023323615   0.0023084257   20.368007      18.800164      1.5678432     -1.739684       18324.713    
    302000   1.0685598      0.0023323615  -0.00095241022  20.584957      18.998146      1.5868113     -1.4847995      18361.108    
    303000   1.0137312      0.0023323615  -0.0018582592   20.871336      19.365945      1.5053908     -1.1643127      18663.454    
    304000   1.0630348      0.0023323615  -0.0017704143   20.988488      19.409881      1.5786066     -1.1420864      19403.411    
    305000   1.2048925      0.0023323615  -0.0014027953   21.175667      19.386401      1.7892653     -1.1653135      20254.716    
    306000   0.92438926     0.0023323615  -0.0011873518   20.746497      19.373779      1.372718      -1.0994705      19388.681    
    307000   1.0862426      0.0023323615  -0.0015809256   20.816363      19.203292      1.6130703     -1.3785339      18352.274    
    308000   1.0926018      0.0023323615  -0.0058854273   20.618792      18.996279      1.6225137     -1.5573223      18279.043    
    309000   1.1338338      0.0023323615   0.001856754    20.623775      18.940032      1.6837433     -1.4898233      18257.821    
    310000   0.94611907     0.0023323615   0.0040541483   20.405973      19.000986      1.4049868     -1.6098531      18352.287    
    311000   0.94146267     0.0023323615   0.0017510533   20.405603      19.007531      1.3980721     -1.6208079      18417.882    
    312000   1.0570888      0.0023323615   0.0045424174   20.362134      18.792357      1.5697769     -1.66129        18383.134    
    313000   1.0131493      0.0023323615   0.00032340654  20.462761      18.958234      1.5045267     -1.5398846      18376.899    
    314000   0.95614713     0.0023323615  -0.0003995619   20.572715      19.152837      1.4198785     -1.2804066      18555.311    
    315000   0.96446455     0.0023323615   0.00047454647  20.485188      19.052958      1.4322299     -1.4016577      18476.192    
    316000   1.0961801      0.0023323615  -0.0023875646   20.886662      19.258834      1.6278275     -1.3356845      18382.284    
    317000   1.0834775      0.0023323615   0.00024437373  20.775382      19.166418      1.6089641     -1.4008936      18460.445    
    318000   1.0508317      0.0023323615  -0.0024891016   20.567527      19.007042      1.560485      -1.4241448      18508.304    
    319000   0.91613191     0.0023323615   0.0013625598   20.575975      19.215519      1.3604559     -1.2938734      18482.569    
    320000   0.9840612      0.0023323615  -0.0016595801   20.604535      19.143204      1.4613309     -1.3983741      18387.177    
    321000   1.0411109      0.0023323615  -0.0022307581   20.536112      18.990063      1.5460497     -1.4086911      18373.432    
    322000   0.96771926     0.0023323615  -0.0024821743   20.618227      19.181164      1.4370631     -1.4168938      18392.513    
    323000   0.84801667     0.0023323615   1.4043925e-05  20.511638      19.252333      1.2593048     -1.2666918      18493.14     
    324000   1.054491       0.0023323615   0.00014845435  20.656018      19.090098      1.5659191     -1.4724686      18288.779    
    325000   0.97034002     0.0023323615  -7.1702965e-05  20.686075      19.24512       1.4409549     -1.2889976      18508.705    
    326000   0.92765562     0.0023323615  -0.00053515763  20.710556      19.332988      1.3775686     -1.2864175      18586.024    
    327000   0.9998266      0.0023323615  -0.001933636    20.621985      19.137243      1.4847425     -1.4158665      18551.848    
    328000   1.0078942      0.0023323615   0.001430287    20.435327      18.938604      1.496723      -1.6087329      18332.663    
    329000   0.90527346     0.0023323615   0.002427067    20.344677      19.000346      1.3443311     -1.5727332      18396.161    
    330000   1.0798267      0.0023323615   0.0013132078   20.77563       19.172087      1.6035427     -1.4196399      18595.296    
    331000   0.97589296     0.0023323615   0.0017330448   20.567214      19.118013      1.449201      -1.4368104      18559.403    
    332000   0.97025047     0.0023323615   0.0012567838   20.282712      18.84189       1.4408219     -1.624686       18427.328    
    333000   0.89318654     0.0023323615   0.00013476538  20.275524      18.949142      1.326382      -1.5210012      18396.636    
    334000   1.0894741      0.0023323615  -0.0029352415   20.476199      18.85833       1.6178691     -1.6212526      18379.704    
    335000   0.93825036     0.0023323615  -0.00025591147  20.610291      19.216989      1.3933018     -1.4333939      18290.378    
    336000   0.97532421     0.0023323615   0.00055457899  20.369064      18.920708      1.4483564     -1.5863833      18403.809    
    337000   1.1400288      0.0023323615  -0.0032741305   20.656824      18.963882      1.6929428     -1.5761134      18403.888    
    338000   1.011051       0.0023323615   0.00013926287  20.600262      19.098852      1.5014107     -1.4017328      18453.295    
    339000   1.0208498      0.0023323615  -0.00084531143  20.76292       19.246958      1.5159619     -1.3379862      18487.834    
    340000   1.0793969      0.0023323615   0.0024700356   20.774168      19.171264      1.6029044     -1.3554413      18465.817    
    341000   1.0625622      0.0023323615   0.0030238904   20.710321      19.132416      1.5779049     -1.3232263      18431.358    
    342000   0.97585413     0.0023323615  -0.0020370964   20.606298      19.157154      1.4491434     -1.2889301      18522.747    
    343000   1.1662616      0.0023323615  -0.0029000412   20.738653      19.006755      1.7318984     -1.5130854      18389.287    
    344000   1.0358552      0.0023323615  -0.0032594871   20.603787      19.065542      1.5382449     -1.4717094      18238.568    
    345000   0.87836669     0.0023323615   0.0017535568   20.356779      19.052404      1.3043745     -1.4075076      18190.534    
    346000   0.87924203     0.0023323615   0.0012565806   20.478421      19.172746      1.3056744     -1.4188784      18459.705    
    347000   1.0142131      0.0023323615   0.00027772593  20.421569      18.915463      1.5061065     -1.6065042      18237.954    
    348000   1.0838515      0.0023323615  -0.0001705465   20.538899      18.92938       1.6095195     -1.5761578      18312.025    
    349000   0.94707165     0.0023323615   0.0017190734   20.483119      19.076718      1.4064014     -1.3994765      18456.906    
    350000   1.0213044      0.0023323615   0.0079788811   20.416808      18.900171      1.5166371     -1.5077108      18433.723    
    351000   1.0134236      0.0023323615  -0.0021021987   20.501945      18.997011      1.504934      -1.5205209      18342.55     
    352000   1.0546293      0.0023323615   0.00011331579  20.5004        18.934275      1.5661246     -1.5827049      18291.802    
    353000   0.94991104     0.0023323615  -0.0011703962   20.546716      19.136098      1.4106179     -1.4490509      18223.473    
    354000   1.0582592      0.0023323615   0.0038133282   20.657774      19.086259      1.5715149     -1.5164532      18287.479    
    355000   1.0931656      0.0023323615  -0.0018971817   20.561499      18.938148      1.623351      -1.4611662      18405.632    
    356000   1.080128       0.0023323615  -0.00021319192  20.753219      19.149229      1.6039901     -1.4210525      18409.343    
    357000   1.0879681      0.0023323615  -0.0011772664   20.761397      19.145764      1.6156327     -1.3504255      18426.355    
    358000   0.93978781     0.0023323615   0.0038291326   19.998226      18.602641      1.3955849     -1.793028       18376.852    
    359000   0.9010328      0.0023323615   0.0038955286   20.535272      19.197238      1.3380337     -1.3557941      18417.128    
    360000   1.0168044      0.0023323615  -0.0036397248   20.591395      19.081441      1.5099545     -1.4557853      18403.647    
    361000   0.93033068     0.0023323615   0.00033811582  20.432106      19.050565      1.3815411     -1.4488872      18339.116    
    362000   0.87018604     0.0023323615  -0.0029574292   20.566077      19.27385       1.2922263     -1.2067563      18321.931    
    363000   0.97810257     0.0023323615   0.0017876765   20.707389      19.254906      1.4524823     -1.3949242      18463.632    
    364000   0.94910515     0.0023323615  -0.0027799225   20.48898       19.079559      1.4094211     -1.5116084      18369.567    
    365000   1.0091145      0.0023323615   0.003514266    20.628564      19.130029      1.4985351     -1.3735966      18339.319    
    366000   1.0540372      0.0023323615   0.0006851062   20.799583      19.234338      1.5652453     -1.2917955      18387.028    
    367000   0.90980554     0.0023323615  -0.0017892104   20.44993       19.098869      1.3510612     -1.432853       18387.489    
    368000   1.0856114      0.0023323615   0.00086444394  20.704564      19.092431      1.612133      -1.3711722      18484.181    
    369000   1.0318017      0.0023323615  -0.00296149     20.545965      19.013739      1.5322255     -1.4427609      18377.336    
    370000   0.88555563     0.0023323615   0.0022226736   20.304056      18.989006      1.3150501     -1.3959372      18462.395    
    371000   0.91689115     0.0023323615  -0.0039879074   20.425472      19.063889      1.3615834     -1.526408       18390.504    
    372000   0.97264899     0.0023323615   0.00063122548  20.423345      18.978962      1.4443837     -1.570836       18232.901    
    373000   0.88120101     0.0023323615   0.0027774895   20.439279      19.130696      1.3085835     -1.4707077      18505.744    
    374000   0.96023773     0.0023323615   0.00092025239  20.430413      19.00446       1.425953      -1.4933144      18461.814    
    375000   1.0407016      0.0023323615   0.0034447668   20.501019      18.955577      1.5454419     -1.3696081      18478.983    
    376000   1.0770945      0.0023323615   0.0014249882   20.521155      18.921669      1.5994854     -1.5765417      18371.396    
    377000   0.99334733     0.0023323615   0.0030116448   20.617871      19.14275       1.4751208     -1.3769243      18384.278    
    378000   0.89010492     0.0023323615   0.0017595589   20.182158      18.860352      1.3218058     -1.6902408      18379.738    
    379000   0.99242619     0.0023323615   0.0021256541   20.523996      19.050243      1.4737529     -1.533419       18495.488    
    380000   0.94424286     0.0023323615   0.0011391348   20.301112      18.898911      1.4022006     -1.4893369      18455.803    
    381000   1.0313901      0.0023323615   0.0028076722   20.586715      19.055101      1.5316144     -1.4195984      18093.28     
    382000   0.85345215     0.0023323615  -0.0036695899   20.32534       19.057963      1.2673764     -1.455831       18146.384    
    383000   1.0203675      0.0023323615   0.0024921936   20.706001      19.190755      1.5152457     -1.322981       18445.796    
    384000   0.94477374     0.0023323615   0.00017725992  20.547814      19.144825      1.402989      -1.4215802      18389.315    
    385000   1.0083829      0.0023323615  -0.001653523    20.888041      19.390592      1.4974486     -1.1553928      18544.42     
    386000   1.0057574      0.0023323615  -0.0035506261   20.638005      19.144455      1.4935498     -1.4071837      18395.524    
    387000   1.0764901      0.0023323615  -0.00097143251  20.728342      19.129755      1.5985877     -1.3843153      18421.931    
    388000   1.0288157      0.0023323615  -0.0021429019   20.520817      18.993025      1.5277914     -1.5253788      18511.908    
    389000   1.0286401      0.0023323615  -0.0015533868   20.531435      19.003905      1.5275305     -1.3878531      18504.543    
    390000   1.0151084      0.0023323615   0.002529271    20.721242      19.213806      1.507436      -1.4000074      18337.496    
    391000   1.0134915      0.0023323615  -0.00046786461  20.497971      18.992936      1.5050349     -1.5648615      18282.933    
    392000   0.85125181     0.0023323615  -0.0015434487   20.146928      18.882819      1.2641089     -1.6612045      18244.732    
    393000   1.0654731      0.0023323615   0.0029705246   20.6438        19.061572      1.5822275     -1.6563782      18234.562    
    394000   1.18905        0.0023323615  -0.00072600762  20.889467      19.123728      1.7657392     -1.412939       18376.324    
    395000   1.1317348      0.0023323615  -0.0015673912   20.855674      19.175048      1.6806262     -1.4013293      18418.742    
    396000   0.97491731     0.0023323615   0.0002036915   20.584135      19.136383      1.4477522     -1.5554734      18513.086    
    397000   1.0363572      0.0023323615   0.0025774639   20.584676      19.045685      1.5389905     -1.6225361      18302.902    
    398000   1.0916154      0.0023323615  -0.0031227733   20.36625       18.745201      1.6210488     -1.7312994      18275.278    
    399000   1.0611877      0.0023323615   0.00035300595  20.563229      18.987365      1.5758637     -1.6096913      18316.716    
    400000   0.97693268     0.0023323615   0.0028736002   20.494095      19.04335       1.450745      -1.5255138      18284.99     
    401000   1.1064643      0.0023323615  -0.00089320637  20.720078      19.076979      1.6430995     -1.4347258      18324.666    
    402000   0.84375073     0.0023323615  -0.0016922953   20.329249      19.076279      1.2529698     -1.4049674      18444.297    
    403000   0.99583041     0.0023323615  -0.0005425629   20.539905      19.061097      1.4788082     -1.5309581      18344.937    
    404000   0.89103329     0.0023323615  -0.00077521305  20.239128      18.915944      1.3231844     -1.599543       18311.655    
    405000   0.92674531     0.0023323615   0.0024228142   20.106427      18.730211      1.3762168     -1.6529402      18283.948    
    406000   0.97797108     0.0023323615  -0.0028590034   20.595233      19.142946      1.452287      -1.382629       18339.588    
    407000   1.0944482      0.0023323615   0.00032527529  20.730295      19.105039      1.6252556     -1.4052066      18397.127    
    408000   0.85887487     0.0023323615  -4.0255923e-05  20.303793      19.028364      1.2754292     -1.5011846      18367.164    
    409000   1.0764213      0.0023323615  -0.0016809666   20.752734      19.154248      1.5984856     -1.4342203      18370.517    
    410000   1.2019359      0.0023323615   0.00070194905  20.733059      18.948184      1.7848747     -1.5897422      18350.134    
[...]
    861000   1.0314864      0.0023323615   0.00070411712  20.573671      19.041913      1.5317573     -1.4216205      18437.033    
    862000   0.89042651     0.0023323615  -0.0018094919   20.33785       19.015567      1.3222834     -1.5412069      18361.963    
    863000   0.98700238     0.0023323615   0.00024920517  20.436302      18.970603      1.4656985     -1.5435457      18374.673    
    864000   1.0439896      0.0023323615  -0.001263357    20.788166      19.237841      1.5503246     -1.3435151      18274.087    
    865000   1.0676599      0.0023323615   0.0019862758   20.741621      19.156146      1.5854749     -1.4211524      18291.413    
    866000   0.96901068     0.0023323615  -0.0011791865   20.666191      19.22721       1.4389809     -1.3332577      18476.715    
    867000   0.97233241     0.0023323615   0.00017363356  20.249921      18.806007      1.4439136     -1.6231148      18385.829    
    868000   0.81818137     0.0023323615   0.0041327313   20.08157       18.86657       1.2149993     -1.6053594      18217.177    
    869000   1.0537207      0.0023323615  -0.0022581774   20.916087      19.351311      1.5647753     -1.2709601      18294.102    
    870000   0.99617394     0.0023323615  -0.00060341974  20.667128      19.18781       1.4793183     -1.3764075      18533.474    
    871000   0.87978302     0.0023323615  -0.004079554    20.231116      18.924638      1.3064778     -1.4909566      18456.595    
    872000   0.95847437     0.0023323615  -0.00028990295  20.251012      18.827678      1.4233344     -1.6168685      18320.616    
    873000   0.97687045     0.0023323615   0.0013840109   20.326998      18.876345      1.4506526     -1.5495865      18408.745    
    874000   0.87320126     0.0023323615  -0.00030949625  20.658849      19.362145      1.2967039     -1.2214354      18439.938    
    875000   1.0537605      0.0023323615   0.00023339431  20.588359      19.023525      1.5648343     -1.4665896      18459.274    
    876000   1.0974587      0.0023323615  -0.0017504831   20.781563      19.151836      1.6297261     -1.2927552      18520.093    
    877000   1.1117286      0.0023323615  -0.0019763707   20.671334      19.020417      1.650917      -1.5474532      18381.058    
    878000   1.1044393      0.0023323615   0.0038624215   20.487222      18.84713       1.6400923     -1.6739475      18301.787    
    879000   1.1885339      0.0023323615   0.0032719466   20.74174       18.976767      1.7649728     -1.5234309      18327.694    
    880000   1.0880221      0.0023323615   0.0024174765   20.629372      19.013659      1.6157129     -1.4798927      18488.458    
    881000   0.91512992     0.0023323615   0.0014644155   20.197695      18.838727      1.3589679     -1.5868616      18434.55     
    882000   0.9775282      0.0023323615   0.0010065602   20.269431      18.817801      1.4516294     -1.5895354      18366.052    
    883000   0.96625572     0.0023323615  -0.00095852851  20.270685      18.835795      1.4348897     -1.6324721      18429.302    
    884000   0.95623649     0.0023323615  -0.0040754637   20.341196      18.921185      1.4200112     -1.5009046      18455.882    
    885000   1.1200333      0.0023323615   0.0024443157   20.977664      19.314415      1.6632494     -1.1598343      18607.697    
    886000   0.9808703      0.0023323615   0.0013709177   20.419456      18.962863      1.4565924     -1.5203912      18498.391    
    887000   0.94092155     0.0023323615   0.0028483782   20.284432      18.887163      1.3972685     -1.6004497      18388.054    
    888000   0.99115904     0.0023323615   0.00077018297  20.480859      19.008987      1.4718712     -1.4472905      18297.402    
    889000   1.0044798      0.0023323615  -0.00020529553  20.280841      18.789188      1.4916526     -1.5419557      18377.961    
    890000   1.0125843      0.0023323615   0.0034832414   20.620255      19.116567      1.5036877     -1.4416449      18393.54     
    891000   1.1149519      0.0023323615   0.0017177665   20.592572      18.936869      1.6557035     -1.5179795      18281.283    
    892000   1.15093        0.0023323615  -0.00079206481  20.523065      18.813934      1.7091311     -1.7701904      18343.154    
    893000   0.90477814     0.0023323615   0.0014662219   20.545402      19.201806      1.3435955     -1.3506949      18314.629    
    894000   0.95708856     0.0023323615  -0.00044098747  20.486841      19.065564      1.4212765     -1.564389       18408.195    
    895000   0.95056826     0.0023323615  -0.0021233956   20.352169      18.940575      1.4115939     -1.4842071      18342.331    
    896000   0.97796126     0.0023323615   0.0019824458   20.595581      19.143309      1.4522725     -1.3326372      18403.277    
    897000   1.0836745      0.0023323615   0.00043335005  20.776477      19.16722       1.6092566     -1.3735916      18460.992    
    898000   0.97100407     0.0023323615  -0.00039127556  20.420522      18.978581      1.441941      -1.6354126      18333.646    
    899000   1.1889193      0.0023323615   0.0034099164   20.943968      19.178423      1.7655452     -1.3122411      18300.962    
    900000   0.80816563     0.0023323615  -0.0015683545   20.459302      19.259177      1.200126      -1.3162181      18438.518    
    901000   0.87249254     0.0023323615   0.0027988696   20.29153       18.995878      1.2956514     -1.4664089      18397.334    
    902000   1.0981354      0.0023323615  -0.0045246063   20.858106      19.227374      1.6307311     -1.359259       18401.998    
    903000   0.96468585     0.0023323615  -0.0013888693   20.328877      18.896319      1.4325585     -1.5459285      18345.865    
    904000   0.9345755      0.0023323615   0.0015248857   20.488756      19.100911      1.3878446     -1.4010567      18224.951    
    905000   0.94052812     0.0023323615  -0.0015282708   20.348103      18.951419      1.3966843     -1.5725827      18223.889    
    906000   0.86344425     0.0023323615   0.0032189396   20.433938      19.151723      1.2822147     -1.5973815      18171.347    
    907000   0.94669933     0.0023323615   0.0013707517   20.340808      18.934959      1.4058485     -1.5505769      18108.793    
    908000   0.91331204     0.0023323615  -0.00057184567  20.428928      19.07266       1.3562684     -1.4032141      18279.354    
    909000   1.0506988      0.0023323615  -0.0012943906   20.556464      18.996176      1.5602877     -1.4102708      18240.047    
    910000   0.9333716      0.0023323615   0.00048090577  20.460307      19.07425       1.3860568     -1.3514326      18396.551    
    911000   0.99645598     0.0023323615   0.00083101686  20.523137      19.0434        1.4797371     -1.507251       18370.649    
    912000   1.0346993      0.0023323615  -0.0023121156   20.685063      19.148535      1.5365284     -1.5729292      18352.398    
    913000   0.94682288     0.0023323615  -0.0027453753   20.219804      18.813772      1.406032      -1.7189264      18170.661    
    914000   0.95007955     0.0023323615   0.0022288538   20.27019       18.859322      1.4108681     -1.5859161      18238.738    
    915000   0.84805083     0.0023323615   0.0055689274   20.285427      19.026072      1.2593555     -1.5939903      18250.42     
    916000   1.016248       0.0023323615  -0.0026499458   20.52756       19.018432      1.5091282     -1.489467       18393.137    
    917000   1.0996472      0.0023323615  -0.0019774226   20.616108      18.983132      1.6329761     -1.5476768      18422.353    
    918000   0.87806164     0.0023323615  -0.00036280623  20.218545      18.914624      1.3039215     -1.5825691      18477.656    
    919000   0.99736705     0.0023323615  -0.0015857652   20.508761      19.027671      1.4810901     -1.6687601      18375.901    
    920000   1.1068496      0.0023323615   0.00170726     20.393394      18.749722      1.6436717     -1.6132874      18296.735    
    921000   1.0729035      0.0023323615  -0.0015953686   20.507141      18.91388       1.5932616     -1.6020512      18321.621    
    922000   0.90448857     0.0023323615  -0.002309606    20.262868      18.919702      1.3431655     -1.5813779      18240.601    
    923000   0.89908318     0.0023323615  -0.0029335843   20.372171      19.037032      1.3351385     -1.5337529      18153.17     
    924000   1.0802708      0.0023323615   0.0014340513   20.830128      19.225926      1.6042021     -1.4753776      18295.889    
    925000   1.071322       0.0023323615   0.0015982788   20.564544      18.973631      1.5909132     -1.6967646      18268.514    
    926000   1.00611        0.0023323615   5.778706e-05   20.253026      18.758953      1.4940734     -1.7718398      18242.515    
    927000   0.82345814     0.0023323615  -0.002422472    20.089236      18.866401      1.2228353     -1.6107791      18266.117    
    928000   0.89047235     0.0023323615  -0.0014853278   20.37282       19.050468      1.3223514     -1.529883       18324.252    
    929000   1.0785625      0.0023323615   0.0020939201   20.740619      19.138954      1.6016652     -1.4880012      18377.288    
    930000   0.87699908     0.0023323615  -0.0042426669   20.263113      18.960769      1.3023436     -1.6884113      18355.014    
    931000   1.0329896      0.0023323615   0.00052552999  20.674146      19.140156      1.5339895     -1.4990212      18459.025    
    932000   0.98356296     0.0023323615  -0.00021391046  20.399335      18.938744      1.460591      -1.5353366      18473.812    
    933000   0.94593598     0.0023323615   0.001418187    20.344292      18.939577      1.4047149     -1.546634       18166.984    
    934000   0.92511024     0.0023323615  -0.0040753189   20.460932      19.087143      1.3737887     -1.524119       18296.812    
    935000   0.9952719      0.0023323615   0.0010870689   20.596704      19.118725      1.4779788     -1.5066615      18434.251    
    936000   0.95898488     0.0023323615  -0.0016025785   20.421133      18.99704       1.4240926     -1.6046128      18362.7      
    937000   0.86728497     0.0023323615   0.00037738883  20.450074      19.162156      1.2879182     -1.3645611      18363.872    
    938000   1.0104883      0.0023323615   0.0014195655   20.634596      19.134021      1.5005751     -1.3655601      18358.495    
    939000   1.0164109      0.0023323615   0.00030599566  20.736177      19.226807      1.5093703     -1.2651411      18319.012    
    940000   0.86653099     0.0023323615  -0.00045630893  20.632555      19.345756      1.2867985     -1.1640664      18370.662    
    941000   1.0331137      0.0023323615   0.0012311221   20.708888      19.174715      1.5341738     -1.3573517      18465.387    
    942000   1.0443266      0.0023323615   0.00057948229  20.577784      19.026959      1.550825      -1.4715319      18331.285    
    943000   0.95043625     0.0023323615   0.00094248916  20.517352      19.105954      1.4113978     -1.4529611      18210.786    
    944000   0.94763561     0.0023323615  -0.0017822063   20.381865      18.974626      1.4072389     -1.4772463      18282.424    
    945000   0.97572832     0.0023323615   0.0027034565   20.523017      19.07406       1.4489566     -1.4456653      18308.434    
    946000   1.0805074      0.0023323615   0.0015638726   20.727447      19.122893      1.6045535     -1.4476768      18357.455    
    947000   1.1068668      0.0023323615  -0.0018034748   20.616978      18.973281      1.6436972     -1.6632674      18379.603    
    948000   1.051991       0.0023323615  -0.0032892851   20.609249      19.047043      1.5622066     -1.5884708      18281.879    
    949000   0.97579351     0.0023323615   0.0010748924   20.645687      19.196634      1.4490534     -1.3725186      18361.608    
    950000   0.8973207      0.0023323615   0.00097204642  20.173415      18.840894      1.3325212     -1.6028974      18240.164    
    951000   0.91030713     0.0023323615   0.0042914265   20.281077      18.929271      1.3518061     -1.5292261      18312.448    
    952000   0.92121508     0.0023323615   0.0012057122   20.359134      18.99113       1.3680044     -1.5790869      18391.863    
    953000   1.01356        0.0023323615   0.00047860751  20.672066      19.16693       1.5051366     -1.3268877      18231.099    
    954000   0.97394724     0.0023323615  -0.0034269052   20.416477      18.970165      1.4463116     -1.5757856      18320.683    
    955000   1.0704614      0.0023323615  -0.00018124909  20.645583      19.055948      1.5896352     -1.5501875      18242.061    
    956000   1.1171171      0.0023323615  -0.0025882286   20.612723      18.953804      1.6589189     -1.5112824      18420.102    
    957000   0.84952361     0.0023323615  -0.002951209    20.363208      19.101666      1.2615426     -1.4683674      18242.238    
    958000   1.005569       0.0023323615  -0.0014182261   20.628608      19.135338      1.4932699     -1.4041712      18418.124    
    959000   0.98897282     0.0023323615  -0.001687883    20.583167      19.114543      1.4686246     -1.3263718      18476.188    
    960000   1.0060316      0.0023323615   4.4199701e-05  20.568423      19.074466      1.4939569     -1.4741117      18343.056    
    961000   1.0087857      0.0023323615  -0.0042034392   20.533913      19.035866      1.4980467     -1.4374803      18308.884    
    962000   1.0337105      0.0023323615   0.002143895    20.406261      18.871201      1.5350601     -1.6345639      18306.161    
    963000   1.0528582      0.0023323615   0.00014385297  20.225734      18.66224       1.5634944     -1.7935037      18208.5      
    964000   0.8367255      0.0023323615   0.0012218952   20.307664      19.065127      1.2425374     -1.5064839      18217.59     
    965000   0.91839148     0.0023323615  -0.0025824707   20.424164      19.060353      1.3638113     -1.4028722      18318.972    
    966000   0.9618984      0.0023323615   0.0018679676   20.495382      19.066963      1.4284191     -1.4686453      18270.872    
    967000   0.99069796     0.0023323615  -0.0028216747   20.763032      19.291845      1.4711865     -1.1517615      18285.432    
    968000   1.0685486      0.0023323615   0.00035493695  20.464592      18.877797      1.5867947     -1.6063382      18282.059    
    969000   1.0761433      0.0023323615  -0.00016005134  20.691372      19.093299      1.5980728     -1.4646776      18214.378    
    970000   0.90452277     0.0023323615   0.0012400805   20.531361      19.188144      1.3432163     -1.3941287      18172.253    
    971000   0.87994083     0.0023323615  -0.00050662884  20.391418      19.084706      1.3067121     -1.4888718      18183.942    
    972000   1.0376989      0.0023323615  -0.0012333932   20.582884      19.041901      1.5409829     -1.6305363      18260.927    
    973000   1.0152197      0.0023323615  -0.0026789973   20.448725      18.941124      1.5076012     -1.522129       18269.872    
    974000   1.0322248      0.0023323615  -0.0053385765   20.449246      18.916392      1.5328538     -1.5849663      18281.859    
    975000   1.2527371      0.0023323615  -0.00062032093  20.952939      19.092625      1.8603145     -1.6028346      18260.787    
    976000   1.0375647      0.0023323615   0.00032821702  20.637765      19.096982      1.5407835     -1.5099949      18227.803    
    977000   1.0236623      0.0023323615  -0.0027269708   20.463582      18.943444      1.5201385     -1.5467806      18322.042    
    978000   1.1780573      0.0023323615  -0.00052247437  20.797937      19.048522      1.7494151     -1.6296433      18337.23     
    979000   1.1424147      0.0023323615  -0.00040982119  20.713403      19.016917      1.6964858     -1.5442607      18321.235    
    980000   1.120332       0.0023323615   0.00085728073  20.599332      18.935639      1.6636931     -1.4651916      18398.002    
    981000   1.0482542      0.0023323615   0.0029483367   20.524756      18.968099      1.5566575     -1.4859515      18460.118    
    982000   0.99980214     0.0023323615  -0.0011196597   20.352809      18.868103      1.4847062     -1.6909648      18235.545    
    983000   1.0550615      0.0023323615   0.0075670389   20.630568      19.063802      1.5667663     -1.6904767      18235.219    
    984000   0.96045075     0.0023323615   0.00039638687  20.513794      19.087525      1.4262694     -1.3912174      18251.815    
    985000   0.96611002     0.0023323615   0.00044501993  20.345419      18.910746      1.4346734     -1.5681029      18343.781    
    986000   0.90618809     0.0023323615  -0.0019743307   20.34267       18.996981      1.3456893     -1.4007729      18335.545    
    987000   0.97820997     0.0023323615  -0.0024016222   20.505165      19.052523      1.4526418     -1.4767587      18371.68     
    988000   1.147476       0.0023323615   0.00019684715  20.765707      19.061705      1.7040018     -1.3728358      18471.381    
    989000   1.0229852      0.0023323615  -0.00078187014  20.503594      18.984461      1.519133      -1.4695118      18466.043    
    990000   1.1056641      0.0023323615   0.0015594511   20.798943      19.157031      1.6419112     -1.4185713      18269.086    
    991000   1.06522        0.0023323615  -0.0044024859   20.656381      19.074529      1.5818517     -1.4399754      18086.748    
    992000   1.0459719      0.0023323615   9.7595448e-05  20.72398       19.170712      1.5532683     -1.4363552      18111.777    
    993000   1.1690294      0.0023323615   0.0010968762   20.76085       19.024841      1.7360086     -1.6641858      18184.933    
    994000   1.0814915      0.0023323615   0.0030829663   20.574492      18.968477      1.6060148     -1.6067381      18118.484    
    995000   0.99247943     0.0023323615  -0.00089516365  20.137244      18.663412      1.473832      -1.7623437      18177.488    
    996000   1.1522481      0.0023323615   0.0015877288   20.465933      18.754844      1.7110885     -1.7189428      18136.874    
    997000   0.95756516     0.0023323615   0.00267885     20.643825      19.221841      1.4219843     -1.3223154      18294.736    
    998000   1.0577016      0.0023323615   0.00099755702  20.507567      18.93688       1.5706868     -1.6407184      18355.105    
    999000   1.0608086      0.0023323615   0.0041201646   20.460557      18.885257      1.5753007     -1.6005105      18331.75     
   1000000   0.95035376     0.0023323615  -0.0027195454   20.528568      19.117293      1.4112753     -1.416645       18337.674    
Loop time of 54.3482 on 1 procs for 1000000 steps with 100 atoms

Performance: 7948741.714 tau/day, 18399.865 timesteps/s
99.4% CPU use with 1 MPI tasks x 1 OpenMP threads

MPI task timing breakdown:
Section |  min time  |  avg time  |  max time  |%varavg| %total
---------------------------------------------------------------
Pair    | 45.251     | 45.251     | 45.251     |   0.0 | 83.26
Bond    | 1.26       | 1.26       | 1.26       |   0.0 |  2.32
Neigh   | 3.8119     | 3.8119     | 3.8119     |   0.0 |  7.01
Comm    | 1.4997     | 1.4997     | 1.4997     |   0.0 |  2.76
Output  | 0.22302    | 0.22302    | 0.22302    |   0.0 |  0.41
Modify  | 1.9508     | 1.9508     | 1.9508     |   0.0 |  3.59
Other   |            | 0.3518     |            |       |  0.65

Nlocal:            100 ave         100 max         100 min
Histogram: 1 0 0 0 0 0 0 0 0 0
Nghost:            340 ave         340 max         340 min
Histogram: 1 0 0 0 0 0 0 0 0 0
Neighs:           4851 ave        4851 max        4851 min
Histogram: 1 0 0 0 0 0 0 0 0 0

Total # of neighbors = 4851
Ave neighs/atom = 48.51
Ave special neighs/atom = 1.98
Neighbor list builds = 97904
Dangerous builds = 80097

write_data      ${outputfile_assembled} nofix nocoeff
write_data      7_assembled.data nofix nocoeff
System init for write_data ...
Generated 0 of 6 mixed pair_coeff terms from geometric mixing rule

Total wall time: 0:00:55
