LAMMPS (23 Jun 2022 - Update 1)
OMP_NUM_THREADS environment is not set. Defaulting to 1 thread. (src/comm.cpp:98)
  using 1 OpenMP thread(s) per MPI task


variable        runtime equal 1000000
variable		subsample_rate equal 1000

variable		outputfile_created string '3_created.data'
variable		outputfile_relaxed string '5_relaxed.data'
variable		outputfile_selfasb string '6_a_self_assemble.lammpstrj'
variable		outputfile_trajlin string '6_b_trajlin.data'
variable		outputfile_assembled string '7_assembled.data'

units           lj
atom_style      full
dimension       3
boundary        p p p
timestep        0.005

read_data       ${outputfile_created}
read_data       3_created.data
Reading data file ...
  orthogonal box = (0 0 0) to (35 35 35)
  1 by 1 by 1 MPI processor grid
  reading atoms ...
  100 atoms
  reading velocities ...
  100 velocities
  scanning bonds ...
  1 = max bonds/atom
  reading bonds ...
  99 bonds
Finding 1-2 1-3 1-4 neighbors ...
  special bond factors lj:    0        0        0       
  special bond factors coul:  0        0        0       
     2 = max # of 1-2 neighbors
     2 = max # of 1-3 neighbors
     4 = max # of 1-4 neighbors
     6 = max # of special neighbors
  special bonds CPU = 0.000 seconds
  read_data CPU = 0.006 seconds

bond_style      fene
bond_coeff      * 30.0 1.5 1.0 1.0
special_bonds   fene
Finding 1-2 1-3 1-4 neighbors ...
  special bond factors lj:    0        1        1       
  special bond factors coul:  0        1        1       
     2 = max # of 1-2 neighbors
     6 = max # of special neighbors
  special bonds CPU = 0.000 seconds

variable        Temp equal 1.0
variable        velSeed equal 926458

velocity        all create ${Temp} ${velSeed}
velocity        all create 1 ${velSeed}
velocity        all create 1 926458

### Output
thermo_style    custom step temp density press etotal pe ke epair spcpu
thermo          1000

###########################################################################
# Soft relaxation (to remove overlaps of particles)
######################################################################

pair_style      soft 1.0
pair_coeff      * * 0.0
variable        prefactor equal ramp(0,300)
fix             rampSoft all adapt 1 pair soft a * * v_prefactor

minimize        0.0 1.0e-8 1000 100000
WARNING: Using 'neigh_modify every 1 delay 0 check yes' setting during minimization (src/min.cpp:187)
Generated 0 of 6 mixed pair_coeff terms from geometric mixing rule
Neighbor list info ...
  update every 1 steps, delay 0 steps, check yes
  max neighbors/atom: 2000, page size: 100000
  master list distance cutoff = 1.3
  ghost atom cutoff = 1.3
  binsize = 0.65, bins = 54 54 54
  1 neighbor lists, perpetual/occasional/extra = 1 0 0
  (1) pair soft, perpetual
      attributes: half, newton on
      pair build: half/bin/newton
      stencil: half/bin/3d
      bin: standard
WARNING: Communication cutoff 1.3 is shorter than a bond length based estimate of 1.7550000000000001. This may lead to errors. (src/comm.cpp:727)
Per MPI rank memory allocation (min/avg/max) = 8.346 | 8.346 | 8.346 Mbytes
   Step          Temp         Density         Press          TotEng         PotEng         KinEng         E_pair         S/CPU     
         0   1              0.0023323615  -0.0039617958   21.524174      20.039174      1.485          0              0            
       362   1              0.0023323615   0.0023090379   21.485548      20.000548      1.485          0              67784.423    
Loop time of 0.0053425 on 1 procs for 362 steps with 100 atoms

95.7% CPU use with 1 MPI tasks x 1 OpenMP threads

Minimization stats:
  Stopping criterion = force tolerance
  Energy initial, next-to-last, final = 
      20.0391741078675   20.0005480767337   20.0005480767337
  Force two-norm initial, final = 11.878422 7.9509778e-09
  Force max component initial, final = 6.6117807 1.3572772e-09
  Final line search alpha, max atom move = 1 1.3572772e-09
  Iterations, force evaluations = 362 738

MPI task timing breakdown:
Section |  min time  |  avg time  |  max time  |%varavg| %total
---------------------------------------------------------------
Pair    | 0.00021389 | 0.00021389 | 0.00021389 |   0.0 |  4.00
Bond    | 0.0023216  | 0.0023216  | 0.0023216  |   0.0 | 43.45
Neigh   | 0.0016315  | 0.0016315  | 0.0016315  |   0.0 | 30.54
Comm    | 0.00018568 | 0.00018568 | 0.00018568 |   0.0 |  3.48
Output  | 0          | 0          | 0          |   0.0 |  0.00
Modify  | 0          | 0          | 0          |   0.0 |  0.00
Other   |            | 0.0009899  |            |       | 18.53

Nlocal:            100 ave         100 max         100 min
Histogram: 1 0 0 0 0 0 0 0 0 0
Nghost:             20 ave          20 max          20 min
Histogram: 1 0 0 0 0 0 0 0 0 0
Neighs:              0 ave           0 max           0 min
Histogram: 1 0 0 0 0 0 0 0 0 0

Total # of neighbors = 0
Ave neighs/atom = 0
Ave special neighs/atom = 1.98
Neighbor list builds = 17
Dangerous builds = 0

fix             nvtSoft all nvt temp ${Temp} ${Temp} 0.5
fix             nvtSoft all nvt temp 1 ${Temp} 0.5
fix             nvtSoft all nvt temp 1 1 0.5
run             100000
Generated 0 of 6 mixed pair_coeff terms from geometric mixing rule
WARNING: Communication cutoff 1.3 is shorter than a bond length based estimate of 1.7550000000000001. This may lead to errors. (src/comm.cpp:727)
Per MPI rank memory allocation (min/avg/max) = 7.221 | 7.221 | 7.221 Mbytes
   Step          Temp         Density         Press          TotEng         PotEng         KinEng         E_pair         S/CPU     
       362   1              0.0023323615   0.0023090379   21.485548      20.000548      1.485          0              0            
      1000   0.90989032     0.0023323615  -0.0021940042   21.776974      20.425787      1.3511871      0.00036425437  78696.344    
      2000   0.86546688     0.0023323615   0.0034714157   21.677128      20.39191       1.2852183      0.0025814786   77913.653    
      3000   0.98199538     0.0023323615   0.0028144228   21.866132      20.407869      1.4582631      0.0011756043   74504.245    
      4000   1.004495       0.0023323615  -0.0014058211   21.945624      20.453949      1.4916751      0.011986179    74175.359    
      5000   1.1222705      0.0023323615   0.0044495116   21.986385      20.319813      1.6665718      0.0050317639   75019.256    
      6000   1.0538243      0.0023323615   0.0023957538   21.985713      20.420784      1.564929       0.012100514    75806.155    
      7000   1.0210598      0.0023323615  -0.00038820026  21.904665      20.388391      1.5162738      0              77560.144    
      8000   0.94819751     0.0023323615   0.0024943091   21.747889      20.339816      1.4080733      0              77104.486    
      9000   0.92364502     0.0023323615   0.0020053029   21.724166      20.352554      1.3716129      1.7780894e-05  76211.391    
     10000   0.86685188     0.0023323615   0.00078277366  21.644879      20.357604      1.287275       0.0098636418   76237.287    
     11000   1.0057103      0.0023323615   0.00010113276  21.8558        20.362321      1.4934798      0.020705341    75879.166    
     12000   0.97901664     0.0023323615  -0.0026996968   21.871206      20.417366      1.4538397      0.0052928539   76173.408    
     13000   0.97718436     0.0023323615  -6.1641422e-06  21.963706      20.512587      1.4511188      0.025022446    75988.067    
     14000   1.0530014      0.0023323615  -0.0009993112   21.947994      20.384287      1.5637071      0.0020860456   75088.272    
     15000   0.99094527     0.0023323615   0.0011068478   21.895146      20.423592      1.4715537      0.0015091113   76022.445    
     16000   0.91285091     0.0023323615  -0.00025424173  21.87524       20.519657      1.3555836      0.0047853639   75412.506    
     17000   0.82806978     0.0023323615  -0.00054698156  21.701984      20.472301      1.2296836      0              75553.33     
     18000   1.043278       0.0023323615  -6.6143919e-05  22.003299      20.454031      1.5492679      0.0034319132   76842.292    
     19000   1.0879249      0.0023323615  -0.0017804642   21.998985      20.383416      1.6155685      0.015376175    75342.257    
     20000   1.1144506      0.0023323615   0.0025198298   22.190904      20.535944      1.6549592      0              76613.447    
     21000   1.0427751      0.0023323615   0.0011345349   22.099492      20.550971      1.548521       0.00040047813  76605.917    
     22000   1.0586695      0.0023323615   0.0017882747   22.05673       20.484606      1.5721242      0              76428.356    
     23000   1.0058426      0.0023323615  -0.0055245362   21.954628      20.460951      1.4936763      0.0027619031   75388.867    
     24000   0.98273442     0.0023323615   0.0015147357   21.862067      20.402707      1.4593606      0              75323.439    
     25000   0.95835343     0.0023323615   0.0017808774   21.937761      20.514606      1.4231548      0.00020839942  75821.128    
     26000   0.93993778     0.0023323615  -0.0021777292   21.884849      20.489042      1.3958076      0.0088889834   76181.427    
     27000   0.9308188      0.0023323615  -0.00011239942  21.842252      20.459986      1.3822659      0.021612409    75494.523    
     28000   1.0149581      0.0023323615   0.0041996387   21.906846      20.399633      1.5072129      0.0064059022   75975.17     
     29000   0.92841138     0.0023323615  -2.5398808e-05  21.987185      20.608494      1.3786909      0.0046112484   75865.788    
     30000   1.021043       0.0023323615   0.001589158    22.097958      20.581709      1.5162489      0.016799508    72713.227    
     31000   1.0465985      0.0023323615  -0.0021744286   22.037917      20.483718      1.5541987      0.0057879149   75816.351    
     32000   0.98907108     0.0023323615  -0.0015558606   22.044089      20.575318      1.4687705      0.009448173    75710.01     
     33000   1.0918536      0.0023323615  -0.0025643847   22.039275      20.417873      1.6214025      0              75064.452    
     34000   0.99801543     0.0023323615   0.0016279766   21.932339      20.450286      1.4820529      0.017384617    77451.811    
     35000   1.0352271      0.0023323615  -0.0052971711   22.076004      20.538692      1.5373122      0.00010473809  75849.589    
     36000   1.1141579      0.0023323615  -0.00093279925  22.222491      20.567966      1.6545245      0.00033678641  76980.439    
     37000   1.0369415      0.0023323615   0.00013065175  22.217841      20.677983      1.5398581      0.013788831    75545.956    
     38000   1.0515596      0.0023323615   0.0021717558   22.070766      20.5092        1.561566       0.0067894678   76561.254    
     39000   1.0238495      0.0023323615   0.00026414509  22.040141      20.519725      1.5204165      0.00044464649  75077.944    
     40000   1.0749111      0.0023323615  -0.0026849368   22.039327      20.443084      1.596243       0.012651334    74324.658    
     41000   0.99070886     0.0023323615  -0.0030385564   22.03241       20.561207      1.4712027      0.00092855646  77475.735    
     42000   0.95315224     0.0023323615   0.0019788197   21.965263      20.549832      1.4154311      0.020233689    75794.123    
     43000   1.0644183      0.0023323615  -0.0011168725   22.287172      20.706511      1.5806611      0.039694129    75800.57     
     44000   1.0253747      0.0023323615  -0.006676522    22.066233      20.543552      1.5226814      0              74526.277    
     45000   0.94179556     0.0023323615  -0.0047206018   21.970644      20.572077      1.3985664      0.019869988    75593.092    
     46000   1.0083495      0.0023323615  -0.0017646918   21.972114      20.474715      1.497399       0.00026040605  75912.068    
     47000   0.98767959     0.0023323615  -0.00080218158  22.091674      20.62497       1.4667042      0.024266258    75443.343    
     48000   1.1473449      0.0023323615  -0.0025885687   22.080512      20.376705      1.7038072      0.00065962995  75749.14     
     49000   1.0679312      0.0023323615   0.0017688272   21.970482      20.384604      1.5858779      0.014142422    76779.11     
     50000   0.9581935      0.0023323615   0.0014398836   21.955202      20.532284      1.4229173      0.0055011948   75834.433    
     51000   1.0215759      0.0023323615  -0.00093292688  21.934681      20.41764       1.5170402      0              76073.257    
     52000   0.98079591     0.0023323615   0.0040701936   21.977374      20.520892      1.4564819      0.0020862422   76960.616    
     53000   1.0090927      0.0023323615   0.0013324753   22.095438      20.596935      1.4985027      0              76090.946    
     54000   0.97519627     0.0023323615   0.0013260734   22.070151      20.621984      1.4481665      0.026885444    76863.714    
     55000   1.1805087      0.0023323615  -0.001586238    22.424088      20.671033      1.7530554      0.024690954    74720.26     
     56000   0.98387121     0.0023323615   0.0037155145   22.104425      20.643376      1.4610487      0.01435493     75896.196    
     57000   1.0723812      0.0023323615  -0.0037916262   22.122726      20.53024       1.592486       0.013635549    76284.715    
     58000   1.0152349      0.0023323615   0.00021908047  22.082827      20.575203      1.5076238      0.00077375639  76376.13     
     59000   1.1424502      0.0023323615  -0.0052108657   22.30072       20.604182      1.6965385      0.013308184    77372.438    
     60000   1.0359703      0.0023323615  -0.00097887545  22.188218      20.649802      1.538416       0.00011346294  75658.996    
     61000   1.1646839      0.0023323615  -0.002085017    22.239945      20.51039       1.7295556      0.012918477    77960.522    
     62000   1.101836       0.0023323615   0.0010338878   22.171386      20.53516       1.6362265      0.001396566    75403.727    
     63000   0.96616435     0.0023323615   0.00097550571  21.903821      20.469067      1.4347541      0.013027663    77254.224    
     64000   1.0068907      0.0023323615  -0.0020278726   22.061652      20.566419      1.4952327      0.013750276    76673.181    
     65000   0.98723233     0.0023323615   0.0022441476   22.031073      20.565033      1.46604        0.0066686189   77020.893    
     66000   1.0273881      0.0023323615  -0.0003515278   22.183579      20.657908      1.5256713      0              75269.816    
     67000   0.96528212     0.0023323615  -0.00014822656  21.9396        20.506156      1.4334439      0.010365557    77168.276    
     68000   1.069702       0.0023323615   9.4754668e-05  22.081119      20.492611      1.5885075      0.00049153926  73667.533    
     69000   1.1229502      0.0023323615   0.0011504079   22.200329      20.532748      1.6675811      0.0068454249   77004.909    
     70000   1.0062775      0.0023323615  -0.00085311964  22.094021      20.599699      1.4943221      0.013222355    73590.784    
     71000   1.0906935      0.0023323615   0.00015260357  22.145362      20.525682      1.6196798      0.018338513    76209.643    
     72000   1.010401       0.0023323615  -6.0487182e-06  22.154105      20.653659      1.5004455      0.0013793953   74942.873    
     73000   1.1177599      0.0023323615  -0.0034084797   22.254435      20.594562      1.6598735      0.00011231735  77536.829    
     74000   0.9768019      0.0023323615   0.00016143893  22.07312       20.622569      1.4505508      0.0084515956   74708.398    
     75000   1.1360996      0.0023323615   0.002159116    22.161595      20.474487      1.6871079      0.0089909162   76505.1      
     76000   0.97379329     0.0023323615  -0.00068458621  21.988928      20.542845      1.446083       0              75847.633    
     77000   0.94876793     0.0023323615  -0.0016073976   21.923496      20.514575      1.4089204      0.017745108    75780.832    
     78000   0.83947996     0.0023323615  -0.00062768559  21.726727      20.480099      1.2466277      0.0054510099   76463.835    
     79000   1.0090614      0.0023323615  -0.00080262643  22.068192      20.569736      1.4984562      0.00023011166  76934.694    
     80000   1.1217643      0.0023323615  -0.0038177864   22.367902      20.702082      1.66582        0.032902439    75877.439    
     81000   1.0240158      0.0023323615   0.00023547123  22.031597      20.510933      1.5206635      0.0068767308   75777.152    
     82000   1.003236       0.0023323615  -0.0022802982   21.894199      20.404393      1.4898055      0.019136282    74996.65     
     83000   1.0554159      0.0023323615   0.004011718    22.104562      20.537269      1.5672927      0.0080869707   74600.967    
     84000   0.83527346     0.0023323615  -0.0034122221   21.874648      20.634267      1.2403811      0.0030083664   75953.894    
     85000   1.036002       0.0023323615   0.0013573923   21.962923      20.42446       1.5384629      0.015709144    76551.039    
     86000   0.9432002      0.0023323615  -0.0032183248   21.913588      20.512936      1.4006523      0.013730309    76008.086    
     87000   0.95566008     0.0023323615  -0.00049614223  21.91653       20.497375      1.4191552      0.0035862035   75629.413    
     88000   0.93373351     0.0023323615  -0.00097093893  21.870485      20.483891      1.3865943      0.0018212145   75337.313    
     89000   0.9684944      0.0023323615  -0.00047342045  21.973429      20.535215      1.4382142      0.00087524744  75549.323    
     90000   0.98293324     0.0023323615  -0.0032204602   22.050919      20.591263      1.4596559      0.015353933    76864.429    
     91000   1.0832827      0.0023323615   0.0048517083   22.11977       20.511095      1.6086749      0.0052867789   77417.926    
     92000   0.85899662     0.0023323615  -0.0013049519   21.765697      20.490087      1.27561        0.0024124001   76017.874    
     93000   0.96176266     0.0023323615  -4.4223672e-05  21.874222      20.446004      1.4282176      0.0045653365   77487.346    
     94000   0.96019503     0.0023323615   0.00024459347  21.944954      20.519064      1.4258896      3.8053462e-05  76816.037    
     95000   0.94702149     0.0023323615  -0.0033658915   21.86315       20.456823      1.4063269      0              77266.604    
     96000   0.91119348     0.0023323615  -0.0013197298   21.825018      20.471896      1.3531223      0.00043282989  76126.866    
     97000   1.0016687      0.0023323615  -0.0019514304   22.013024      20.525546      1.487478       0.0048369955   75122.585    
     98000   1.02143        0.0023323615  -0.0057874974   22.177965      20.661142      1.5168235      0              74421.136    
     99000   1.032786       0.0023323615   0.0018228259   21.975336      20.441649      1.5336871      7.1595851e-05  77769.055    
    100000   1.0594928      0.0023323615   0.0036169719   22.011024      20.437677      1.5733468      0.00032948157  75856.62     
    100362   1.1904942      0.0023323615  -0.00089755607  22.316856      20.548972      1.7678839      0.00063845255  75499.811    
Loop time of 1.31606 on 1 procs for 100000 steps with 100 atoms

Performance: 32825156.723 tau/day, 75984.159 timesteps/s
98.9% CPU use with 1 MPI tasks x 1 OpenMP threads

MPI task timing breakdown:
Section |  min time  |  avg time  |  max time  |%varavg| %total
---------------------------------------------------------------
Pair    | 0.050165   | 0.050165   | 0.050165   |   0.0 |  3.81
Bond    | 0.12591    | 0.12591    | 0.12591    |   0.0 |  9.57
Neigh   | 0.80159    | 0.80159    | 0.80159    |   0.0 | 60.91
Comm    | 0.054767   | 0.054767   | 0.054767   |   0.0 |  4.16
Output  | 0.0015175  | 0.0015175  | 0.0015175  |   0.0 |  0.12
Modify  | 0.24887    | 0.24887    | 0.24887    |   0.0 | 18.91
Other   |            | 0.03325    |            |       |  2.53

Nlocal:            100 ave         100 max         100 min
Histogram: 1 0 0 0 0 0 0 0 0 0
Nghost:             60 ave          60 max          60 min
Histogram: 1 0 0 0 0 0 0 0 0 0
Neighs:             36 ave          36 max          36 min
Histogram: 1 0 0 0 0 0 0 0 0 0

Total # of neighbors = 36
Ave neighs/atom = 0.36
Ave special neighs/atom = 1.98
Neighbor list builds = 9821
Dangerous builds = 8265
unfix           nvtSoft
unfix           rampSoft
reset_timestep  0

write_data      ${outputfile_relaxed}
write_data      5_relaxed.data
System init for write_data ...
Generated 0 of 6 mixed pair_coeff terms from geometric mixing rule
WARNING: Communication cutoff 1.3 is shorter than a bond length based estimate of 1.7550000000000001. This may lead to errors. (src/comm.cpp:727)
WARNING: Not all mixed pair coeffs generated from mixing. Use write_data with 'pair ij' option to store all pair coeffs. (src/write_data.cpp:309)

###########################################################################
# Full LJ with Coulomb
######################################################################

# Cutoffs and parameters:
# - Values: Marcel Verkade's Bachelor Thesis
# - Mapping to atom groups: Patrick Onck's paper
# - 1: aliphatic, 2: aromatic, 3: anion, 4: cation
# pair_style	lj/cut/coul/cut <lj_cut_global> <coul_cut_global>
# pair_coeff	<type_1>  <type_2>  <eps>  <sigma>  <r_cut_lj>  <r_cut_coul>

# Problem: Onck's model is much more complex, and Marcel has no sigma reported
# Using sigma=1 randomly

variable		glob_ljeps equal 1.0
variable		glob_ljsig 	equal 1.0
variable		glob_coulcut equal 10.0
variable		att_ljcut equal 2.50
variable		rep_ljcut equal 1.12

pair_style		lj/cut/coul/cut 						${att_ljcut} 	${glob_coulcut}
pair_style		lj/cut/coul/cut 						2.5 	${glob_coulcut}
pair_style		lj/cut/coul/cut 						2.5 	10
pair_coeff		1 1 	${glob_ljeps} 	${glob_ljsig}	${att_ljcut} 	${glob_coulcut}
pair_coeff		1 1 	1 	${glob_ljsig}	${att_ljcut} 	${glob_coulcut}
pair_coeff		1 1 	1 	1	${att_ljcut} 	${glob_coulcut}
pair_coeff		1 1 	1 	1	2.5 	${glob_coulcut}
pair_coeff		1 1 	1 	1	2.5 	10
pair_coeff		1 2 	${glob_ljeps} 	${glob_ljsig}	${att_ljcut} 	${glob_coulcut}
pair_coeff		1 2 	1 	${glob_ljsig}	${att_ljcut} 	${glob_coulcut}
pair_coeff		1 2 	1 	1	${att_ljcut} 	${glob_coulcut}
pair_coeff		1 2 	1 	1	2.5 	${glob_coulcut}
pair_coeff		1 2 	1 	1	2.5 	10
pair_coeff		1 3 	${glob_ljeps} 	${glob_ljsig}	${rep_ljcut} 	${glob_coulcut}
pair_coeff		1 3 	1 	${glob_ljsig}	${rep_ljcut} 	${glob_coulcut}
pair_coeff		1 3 	1 	1	${rep_ljcut} 	${glob_coulcut}
pair_coeff		1 3 	1 	1	1.12 	${glob_coulcut}
pair_coeff		1 3 	1 	1	1.12 	10
pair_coeff		1 4 	${glob_ljeps} 	${glob_ljsig}	${rep_ljcut} 	${glob_coulcut}
pair_coeff		1 4 	1 	${glob_ljsig}	${rep_ljcut} 	${glob_coulcut}
pair_coeff		1 4 	1 	1	${rep_ljcut} 	${glob_coulcut}
pair_coeff		1 4 	1 	1	1.12 	${glob_coulcut}
pair_coeff		1 4 	1 	1	1.12 	10
pair_coeff		2 2 	${glob_ljeps} 	${glob_ljsig}	${att_ljcut} 	${glob_coulcut}
pair_coeff		2 2 	1 	${glob_ljsig}	${att_ljcut} 	${glob_coulcut}
pair_coeff		2 2 	1 	1	${att_ljcut} 	${glob_coulcut}
pair_coeff		2 2 	1 	1	2.5 	${glob_coulcut}
pair_coeff		2 2 	1 	1	2.5 	10
pair_coeff		2 3 	${glob_ljeps} 	${glob_ljsig}	${rep_ljcut} 	${glob_coulcut}
pair_coeff		2 3 	1 	${glob_ljsig}	${rep_ljcut} 	${glob_coulcut}
pair_coeff		2 3 	1 	1	${rep_ljcut} 	${glob_coulcut}
pair_coeff		2 3 	1 	1	1.12 	${glob_coulcut}
pair_coeff		2 3 	1 	1	1.12 	10
pair_coeff		2 4 	${glob_ljeps} 	${glob_ljsig}	${att_ljcut} 	${glob_coulcut}
pair_coeff		2 4 	1 	${glob_ljsig}	${att_ljcut} 	${glob_coulcut}
pair_coeff		2 4 	1 	1	${att_ljcut} 	${glob_coulcut}
pair_coeff		2 4 	1 	1	2.5 	${glob_coulcut}
pair_coeff		2 4 	1 	1	2.5 	10
pair_coeff		3 3 	${glob_ljeps} 	${glob_ljsig}	${rep_ljcut} 	${glob_coulcut}
pair_coeff		3 3 	1 	${glob_ljsig}	${rep_ljcut} 	${glob_coulcut}
pair_coeff		3 3 	1 	1	${rep_ljcut} 	${glob_coulcut}
pair_coeff		3 3 	1 	1	1.12 	${glob_coulcut}
pair_coeff		3 3 	1 	1	1.12 	10
pair_coeff		3 4 	${glob_ljeps} 	${glob_ljsig}	${att_ljcut} 	${glob_coulcut}
pair_coeff		3 4 	1 	${glob_ljsig}	${att_ljcut} 	${glob_coulcut}
pair_coeff		3 4 	1 	1	${att_ljcut} 	${glob_coulcut}
pair_coeff		3 4 	1 	1	2.5 	${glob_coulcut}
pair_coeff		3 4 	1 	1	2.5 	10
pair_coeff		4 4 	${glob_ljeps} 	${glob_ljsig}	${rep_ljcut} 	${glob_coulcut}
pair_coeff		4 4 	1 	${glob_ljsig}	${rep_ljcut} 	${glob_coulcut}
pair_coeff		4 4 	1 	1	${rep_ljcut} 	${glob_coulcut}
pair_coeff		4 4 	1 	1	1.12 	${glob_coulcut}
pair_coeff		4 4 	1 	1	1.12 	10


fix             noDriftRot 	all momentum 10 linear 1 1 1 angular
fix             nvt1 		all nvt temp ${Temp} ${Temp} 0.5
fix             nvt1 		all nvt temp 1 ${Temp} 0.5
fix             nvt1 		all nvt temp 1 1 0.5

# dump          assemble 	all custom 1000 				${outputfile_selfasb} id type xu yu zu vx vy vz
dump            lindump 	all custom ${subsample_rate} 	${outputfile_trajlin} id type xu yu zu vx vy vz
dump            lindump 	all custom 1000 	${outputfile_trajlin} id type xu yu zu vx vy vz
dump            lindump 	all custom 1000 	6_b_trajlin.data id type xu yu zu vx vy vz

run             ${runtime}
run             1000000
Generated 0 of 6 mixed pair_coeff terms from geometric mixing rule
Neighbor list info ...
  update every 1 steps, delay 10 steps, check yes
  max neighbors/atom: 2000, page size: 100000
  master list distance cutoff = 10.3
  ghost atom cutoff = 10.3
  binsize = 5.15, bins = 7 7 7
  1 neighbor lists, perpetual/occasional/extra = 1 0 0
  (1) pair lj/cut/coul/cut, perpetual
      attributes: half, newton on
      pair build: half/bin/newton
      stencil: half/bin/3d
      bin: standard
Per MPI rank memory allocation (min/avg/max) = 7.712 | 7.712 | 7.712 Mbytes
   Step          Temp         Density         Press          TotEng         PotEng         KinEng         E_pair         S/CPU     
         0   1.1904942      0.0023323615  -0.0014041468   21.914864      20.14698       1.7678839     -0.4013544      0            
      1000   0.93471237     0.0023323615  -0.0032375435   21.14889       19.760842      1.3880479     -0.71640814     33379.092    
      2000   1.0158139      0.0023323615  -0.0044756704   21.183066      19.674583      1.5084836     -0.84218587     30789.028    
      3000   0.97174673     0.0023323615   0.00015945137  20.779138      19.336095      1.4430439     -0.97909478     26185.861    
      4000   1.0023757      0.0023323615   0.0023202838   21.033152      19.544624      1.4885279     -0.94566141     21074.843    
      5000   0.90889922     0.0023323615   0.00076843834  20.594497      19.244782      1.3497153     -1.1763121      18894.848    
      6000   0.94645618     0.0023323615  -0.00023844714  20.549836      19.144348      1.4054874     -1.3432981      18553.57     
      7000   0.99501507     0.0023323615  -0.0035694086   20.791966      19.314369      1.4775974     -1.2508514      18200.934    
      8000   0.92356923     0.0023323615  -0.0017359638   20.916464      19.544964      1.3715003     -0.91409007     18674.221    
      9000   1.0101182      0.0023323615   0.00097666961  20.679697      19.179672      1.5000255     -1.2608629      18693.345    
     10000   1.1164774      0.0023323615  -0.0016423329   20.950883      19.292914      1.6579689     -1.229243       18699.495    
     11000   0.94016537     0.0023323615  -0.0013481337   20.458655      19.06251       1.3961456     -1.3820424      18703.84     
     12000   0.92638788     0.0023323615   0.0044544717   20.697274      19.321588      1.375686      -1.1668615      18606.492    
     13000   0.97486115     0.0023323615  -0.00079380086  20.853389      19.40572       1.4476688     -1.1997439      18794.497    
     14000   0.92482884     0.0023323615  -0.002041445    20.8427        19.469329      1.3733708     -1.1559012      18740.626    
     15000   1.0601047      0.0023323615   0.0012971059   20.644772      19.070516      1.5742555     -1.4094754      18707.026    
     16000   0.98217097     0.0023323615  -0.0016417233   20.821706      19.363182      1.4585239     -1.103882       18620.612    
     17000   0.99170376     0.0023323615   0.00067951016  20.524589      19.051909      1.4726801     -1.4575057      18649.207    
     18000   0.96173168     0.0023323615   0.00029596691  20.753842      19.32567       1.4281715     -1.1939122      18711.48     
     19000   0.94716273     0.0023323615   0.0016954005   20.825194      19.418657      1.4065367     -1.1864778      18663.208    
     20000   0.95492406     0.0023323615  -0.0017289268   20.775628      19.357566      1.4180622     -1.1621301      18743.713    
     21000   1.0298095      0.0023323615   0.0012684499   20.725945      19.196678      1.529267      -1.2390611      18534.315    
     22000   1.1166944      0.0023323615  -0.0037089021   21.082654      19.424363      1.6582912     -1.1912743      18540.46     
     23000   0.98430512     0.0023323615  -0.00089062259  20.686596      19.224903      1.4616931     -1.3554214      18764.168    
     24000   1.0448712      0.0023323615   0.0025577635   20.686164      19.13453       1.5516338     -1.3124521      18556.209    
     25000   1.0840057      0.0023323615  -0.0020561436   21.01915       19.409402      1.6097485     -1.2438461      18515.429    
     26000   0.93769966     0.0023323615   0.0029429731   20.545723      19.153239      1.392484      -1.2883973      18538.184    
     27000   0.85840577     0.0023323615   0.00079466116  20.716051      19.441319      1.2747326     -1.0949587      18649.242    
     28000   1.0428062      0.0023323615  -0.0021364372   20.87874       19.330173      1.5485672     -1.1602671      18674.983    
     29000   0.98300828     0.0023323615   0.00019223044  20.802351      19.342584      1.4597673     -1.1036479      18649.824    
     30000   1.1152929      0.0023323615   0.0032441924   20.836466      19.180256      1.65621       -1.2476666      18707.839    
     31000   1.1336679      0.0023323615  -0.0015051335   20.807873      19.124376      1.6834969     -1.3680442      18444.178    
     32000   0.92658967     0.0023323615   0.0012366353   20.536202      19.160217      1.3759857     -1.3727368      18412.344    
     33000   1.0444838      0.0023323615   0.0010883557   20.594226      19.043167      1.5510584     -1.4180627      18437.632    
     34000   0.94491382     0.0023323615   0.0010881845   20.607173      19.203976      1.403197      -1.2851871      18383.018    
     35000   1.1077371      0.0023323615   0.0028486615   20.871218      19.226229      1.6449895     -1.1648577      18558.552    
     36000   1.1140938      0.0023323615  -0.0025516956   20.972439      19.31801       1.6544292     -1.146291       18623.878    
     37000   1.0131224      0.0023323615   0.0037523934   20.918003      19.413516      1.5044868     -1.1135951      18617.796    
     38000   1.0075321      0.0023323615   0.00095776157  20.601233      19.105048      1.4961852     -1.2775144      18556.626    
     39000   1.0059978      0.0023323615   0.0016569076   21.021189      19.527283      1.4939067     -1.0445052      18810.748    
     40000   1.0553851      0.0023323615  -0.00091609008  21.152833      19.585586      1.5672469     -0.96092483     18985.446    
     41000   0.93934958     0.0023323615   0.0021157156   20.706842      19.311908      1.3949341     -1.2583192      18711.185    
     42000   1.0479215      0.0023323615  -0.0006033576   21.025195      19.469032      1.5561635     -1.0580903      18943.302    
     43000   1.0540265      0.0023323615  -0.0011435681   20.806595      19.241366      1.5652294     -1.2306421      18894.05     
     44000   0.97892312     0.0023323615   0.0011173432   20.796145      19.342445      1.4537008     -1.0557873      19175.733    
     45000   0.86512137     0.0023323615   0.00023137281  20.656983      19.372278      1.2847052     -1.101341       19448.651    
     46000   1.0012448      0.0023323615   0.0024410586   21.044329      19.557481      1.4868485     -0.99684701     18970.031    
     47000   1.0037188      0.0023323615   0.00056573312  21.025699      19.535177      1.4905224     -1.0336864      18696.636    
     48000   1.0694614      0.0023323615  -0.0034137494   20.825633      19.237483      1.5881502     -1.2931872      18476.028    
     49000   0.95660701     0.0023323615   0.0013254298   20.449101      19.02854       1.4205614     -1.3764659      18589.636    
     50000   1.0671784      0.0023323615  -0.0018288344   21.116476      19.531716      1.5847599     -1.169016       18684.306    
     51000   1.0684082      0.0023323615  -0.0026056361   20.79196       19.205373      1.5865862     -1.2930372      18653.167    
     52000   0.89137483     0.0023323615  -0.0037637268   20.915713      19.592021      1.3236916     -0.96899138     18655.356    
     53000   0.92597368     0.0023323615   0.0025634427   20.845586      19.470515      1.3750709     -0.97331435     18625.772    
     54000   1.0226965      0.0023323615   0.0023508362   20.738669      19.219964      1.5187043     -1.3432301      18502.318    
     55000   1.0482339      0.0023323615   0.0028650846   20.888669      19.332041      1.5566273     -1.2131403      18508.027    
     56000   0.96511355     0.0023323615   0.00191093     20.584584      19.151391      1.4331936     -1.3137145      18553.009    
     57000   0.95788343     0.0023323615   0.0010844924   20.729168      19.306711      1.4224569     -1.3101534      18522.7      
     58000   1.0815704      0.0023323615  -0.0021008005   20.856672      19.25054       1.606132      -1.3275508      18500.494    
     59000   0.8979733      0.0023323615  -0.00124138     20.505265      19.171775      1.3334903     -1.4420501      18529.955    
     60000   0.89283142     0.0023323615   0.0037118874   20.549752      19.223898      1.3258547     -1.2919017      18416.224    
     61000   0.89618397     0.0023323615   0.000404577    20.591055      19.260222      1.3308332     -1.3281399      18589.206    
     62000   1.10698        0.0023323615  -0.0020575604   20.959159      19.315294      1.6438653     -1.2934342      18608.597    
     63000   1.069987       0.0023323615   0.0012347469   20.822457      19.233527      1.5889307     -1.3013845      18467.127    
     64000   1.0619741      0.0023323615  -0.0011103258   20.890089      19.313057      1.5770316     -1.2946746      18439.512    
     65000   1.0430094      0.0023323615   0.00084346907  20.645862      19.096993      1.5488689     -1.467976       18638.697    
     66000   1.0830722      0.0023323615  -0.00078096906  20.82312       19.214758      1.6083622     -1.3256148      18645.713    
     67000   0.92495842     0.0023323615  -0.0018667812   20.504436      19.130873      1.3735632     -1.4239234      18565.684    
     68000   1.1626538      0.0023323615   0.00094640683  21.090708      19.364167      1.7265408     -1.1240721      18778.398    
     69000   0.93705857     0.0023323615  -0.0027832887   21.050917      19.659385      1.391532      -1.0237967      18610.565    
     70000   0.96873315     0.0023323615   0.0008509971   20.834175      19.395606      1.4385687     -1.0710248      18698.416    
     71000   0.99431162     0.0023323615   0.001614306    20.827454      19.350901      1.4765528     -1.1442873      18618.028    
     72000   1.1195542      0.0023323615  -0.00044521964  20.907123      19.244585      1.662538      -1.2076093      18744.871    
     73000   1.0005515      0.0023323615  -0.0015960308   21.019485      19.533666      1.485819      -1.1208919      18714.294    
     74000   0.8537881      0.0023323615  -0.0013220174   20.973141      19.705266      1.2678753     -0.96417148     18877.64     
     75000   0.87134767     0.0023323615   0.0043762609   20.736804      19.442853      1.2939513     -1.1681266      18842.132    
     76000   0.97923044     0.0023323615   0.0014689256   20.696182      19.242025      1.4541572     -1.2164256      18628.174    
     77000   0.99350967     0.0023323615   0.0013115441   20.73021       19.254848      1.4753619     -1.2520088      18497.655    
     78000   1.1356106      0.0023323615   0.00054859889  21.191305      19.504923      1.6863817     -0.99524621     18842.21     
     79000   0.90911921     0.0023323615   0.00061084164  20.729489      19.379447      1.350042      -1.0707714      18933.521    
     80000   1.0290358      0.0023323615   0.000148136    20.704653      19.176535      1.5281182     -1.3865452      18723.741    
     81000   0.89734886     0.0023323615  -0.0013438353   20.763085      19.430522      1.3325631     -1.231707       18627.097    
     82000   0.9034671      0.0023323615  -0.0025307092   20.812173      19.470524      1.3416486     -1.118256       18706.963    
     83000   1.0678786      0.0023323615   0.0037300112   20.741157      19.155358      1.5857997     -1.2650979      18674.829    
     84000   0.94787504     0.0023323615  -0.0027897181   20.749713      19.342119      1.4075944     -1.1539472      18713.529    
     85000   0.9856931      0.0023323615   0.00011087315  20.743629      19.279875      1.4637543     -1.1849455      18724.925    
     86000   1.0270376      0.0023323615   0.0043777889   20.836696      19.311545      1.5251509     -1.2703152      18651.403    
     87000   0.89334877     0.0023323615   0.0021889537   20.545255      19.218633      1.3266229     -1.2656256      18656.2      
     88000   1.0340369      0.0023323615  -0.0022958981   20.652128      19.116583      1.5355448     -1.3870892      18691.119    
     89000   0.88436192     0.0023323615   0.0020122209   20.496885      19.183607      1.3132774     -1.3306746      18724.253    
     90000   0.89710638     0.0023323615  -4.0566433e-05  20.43815       19.105947      1.332203      -1.2773995      18484.901    
     91000   0.99204603     0.0023323615  -0.00081570449  20.808665      19.335477      1.4731884     -1.2481909      18389.684    
     92000   1.0228271      0.0023323615   0.0042292855   20.737587      19.218688      1.5188982     -1.4176154      18397.15     
     93000   1.0242762      0.0023323615  -0.00021763679  20.853487      19.332437      1.5210501     -1.0860071      18375.962    
     94000   1.0754731      0.0023323615  -2.7578251e-05  20.767105      19.170027      1.5970775     -1.1982453      18663.424    
     95000   0.88923595     0.0023323615  -0.00025496085  20.815231      19.494716      1.3205154     -0.94717977     19341.576    
     96000   1.0272453      0.0023323615   0.00052894842  20.931996      19.406537      1.5254592     -1.0348153      19124.908    
     97000   0.83680838     0.0023323615  -0.0019289712   20.606303      19.363642      1.2426604     -1.1883636      18823.392    
     98000   0.98831541     0.0023323615  -0.00068520264  20.746264      19.278616      1.4676484     -1.1569486      18552.06     
     99000   1.1161503      0.0023323615   0.0013717004   21.038372      19.380888      1.6574832     -0.99857653     18521.954    
    100000   1.0084589      0.0023323615   0.005040567    20.861276      19.363714      1.4975614     -1.2352815      18527.266    
    101000   0.96374679     0.0023323615  -0.0011284782   20.50804       19.076876      1.431164      -1.4719605      18412.327    
    102000   0.84056805     0.0023323615  -0.0019173965   20.566102      19.317858      1.2482435     -1.350342       18418.137    
    103000   0.95163797     0.0023323615  -9.5910774e-05  20.656799      19.243616      1.4131824     -1.2316925      18504.101    
    104000   0.92913576     0.0023323615   0.0019277458   20.598413      19.218647      1.3797666     -1.3055488      18599.398    
    105000   1.1299344      0.0023323615  -0.001897029    20.933765      19.255812      1.6779527     -1.2762808      18539.245    
    106000   0.88873473     0.0023323615   0.0001371576   20.490337      19.170566      1.3197711     -1.3493748      18542.486    
    107000   0.93137214     0.0023323615  -0.0012841027   20.611958      19.22887       1.3830876     -1.2833854      18508.219    
    108000   0.98960198     0.0023323615   0.001834094    20.694915      19.225357      1.4695589     -1.2849395      18622.787    
    109000   1.085936       0.0023323615  -0.00047676545  20.847019      19.234404      1.612615      -1.3192716      18698.924    
    110000   0.9353769      0.0023323615   0.002165931    20.325367      18.936333      1.3890347     -1.5911386      18592.451    
    111000   1.0176262      0.0023323615  -0.0015607754   20.933709      19.422534      1.511175      -1.2418554      18465.333    
    112000   1.0616786      0.0023323615  -0.0036302759   21.110809      19.534217      1.5765927     -1.1237065      18545.549    
    113000   0.95528675     0.0023323615  -0.0017849992   20.878254      19.459653      1.4186008     -1.0675729      18792.473    
    114000   0.96774043     0.0023323615  -0.00053753397  20.848282      19.411187      1.4370945     -1.1595896      18605.936    
    115000   1.1575773      0.0023323615   0.0006301239   21.127553      19.408551      1.7190023     -1.2254739      18837.74     
    116000   0.91817478     0.0023323615  -0.00019767481  20.719948      19.356459      1.3634896     -1.1877845      18948.984    
    117000   1.0088524      0.0023323615  -0.00040159637  20.801821      19.303676      1.4981458     -1.2180972      18579.338    
    118000   0.87844993     0.0023323615  -0.0043145661   20.663126      19.358628      1.3044982     -1.1843869      18601.53     
    119000   1.0295441      0.0023323615   0.0019373236   20.818783      19.289911      1.5288729     -1.257372       18566.195    
    120000   0.99351326     0.0023323615   0.0024159149   20.842851      19.367484      1.4753672     -1.1649067      18575.189    
    121000   1.078736       0.0023323615   0.0041719716   20.935806      19.333883      1.6019229     -1.1725133      18615.854    
    122000   0.92521712     0.0023323615  -0.0012723524   20.770023      19.396075      1.3739474     -1.2124811      18794.151    
    123000   1.1341396      0.0023323615   0.00027145784  20.963097      19.2789        1.6841973     -1.1354075      18731.96     
    124000   0.97496371     0.0023323615  -0.0022737192   20.80805       19.360229      1.4478211     -1.1582535      18554.671    
    125000   0.9762681      0.0023323615   0.0033988294   20.908679      19.458921      1.4497581     -1.1521188      18662.636    
    126000   0.85757474     0.0023323615   0.00135516     20.74992       19.476422      1.2734985     -0.99518485     18712.329    
    127000   1.0186715      0.0023323615   0.0012899452   20.83522       19.322492      1.5127272     -1.1267005      18832.921    
    128000   0.86873618     0.0023323615   0.0039593425   20.638529      19.348455      1.2900732     -1.1835556      18858.334    
    129000   0.97506721     0.0023323615  -0.0027919582   20.855993      19.408018      1.4479748     -1.0228923      19129.016    
    130000   0.87338912     0.0023323615  -0.0018293757   20.831872      19.534889      1.2969828     -0.95176842     19483.928    
    131000   1.015358       0.0023323615   0.0004461545   20.977721      19.469915      1.5078067     -1.0846937      19071.128    
    132000   1.0548647      0.0023323615   0.0023265142   21.216076      19.649602      1.5664741     -0.92959267     18701.94     
    133000   0.95151898     0.0023323615   0.0015967402   20.831145      19.41814       1.4130057     -1.0372651      18627.778    
    134000   1.0340918      0.0023323615   0.0029419719   20.839606      19.30398       1.5356264     -1.2754515      18803.052    
    135000   1.1313809      0.0023323615  -0.00049486008  21.130829      19.450729      1.6801007     -1.1103284      18772.076    
    136000   1.0019729      0.0023323615  -0.0030453434   20.864225      19.376295      1.4879297     -1.1391045      18699.94     
    137000   0.93434394     0.0023323615   0.0030212247   20.89256       19.505059      1.3875007     -0.99316321     18733.781    
    138000   0.99814022     0.0023323615   0.0039316487   20.919898      19.43766       1.4822382     -1.0807635      18869.411    
    139000   0.93627743     0.0023323615  -0.0031352926   20.672486      19.282114      1.390372      -1.3076572      18774.407    
    140000   1.0056701      0.0023323615   0.0032571553   20.750273      19.256853      1.4934201     -1.2516888      18877.337    
    141000   0.8722775      0.0023323615  -0.0036497122   20.505015      19.209682      1.2953321     -1.3493941      18729.422    
    142000   0.99778234     0.0023323615   0.003260171    20.754704      19.272997      1.4817068     -1.1683489      18675        
    143000   0.86282394     0.0023323615  -0.0035897939   20.703781      19.422487      1.2812936     -1.1447522      18696.143    
    144000   1.086523       0.0023323615   5.843529e-07   21.080328      19.466841      1.6134866     -1.0067762      18873.417    
    145000   1.0545827      0.0023323615   0.002385406    20.922816      19.356761      1.5660554     -1.2058198      18817.337    
    146000   0.99502232     0.0023323615  -0.0035879051   20.830255      19.352647      1.4776081     -1.1016475      18631.763    
    147000   0.90613268     0.0023323615  -0.0022106271   20.714962      19.369355      1.345607      -1.2143081      18527.427    
    148000   1.0568303      0.0023323615  -3.2556818e-05  20.921331      19.351938      1.569393      -1.2403771      18673.033    
    149000   1.0382611      0.0023323615   0.0010720551   21.096828      19.55501       1.5418178     -1.0231115      18713.36     
    150000   0.87179304     0.0023323615  -0.0058027489   20.889602      19.594989      1.2946127     -0.97443388     18738.22     
    151000   1.0457241      0.0023323615  -0.0015423603   21.075292      19.522392      1.5529004     -0.98422725     19409.247    
    152000   0.96642488     0.0023323615  -0.001646032    20.98588       19.550739      1.4351409     -0.91953822     19292.058    
    153000   0.99523426     0.0023323615  -0.0024748718   21.010804      19.532881      1.4779229     -0.97277878     18856.26     
    154000   1.0118222      0.0023323615   0.0026639296   20.59813       19.095574      1.502556      -1.3453012      18720.44     
    155000   1.0227482      0.0023323615   0.002762023    20.848919      19.330138      1.5187811     -1.2444445      18769.775    
    156000   1.0202741      0.0023323615  -0.0031911707   20.951379      19.436272      1.515107      -1.0731355      18656.873    
    157000   1.0721529      0.0023323615   0.00022111967  20.902425      19.310278      1.592147      -1.123206       18545.152    
    158000   0.938931       0.0023323615   0.00014734168  20.819296      19.424984      1.3943125     -1.0778086      18768.053    
    159000   1.0100045      0.0023323615  -0.002043764    20.983102      19.483245      1.4998567     -1.0625662      19090.154    
    160000   0.7756789      0.0023323615  -0.0035771524   20.501081      19.349197      1.1518832     -1.1129035      19616.455    
    161000   0.99339167     0.0023323615   0.0017805105   20.741852      19.266666      1.4751866     -1.1302247      19625.31     
    162000   1.0512513      0.0023323615   0.0065831456   21.020464      19.459356      1.5611082     -0.99479395     18914.114    
    163000   0.85742364     0.0023323615   0.00041941181  20.451438      19.178164      1.2732741     -1.3539496      18732.466    
    164000   1.0225984      0.0023323615   0.0020405347   20.939444      19.420885      1.5185587     -1.1551345      18593.705    
    165000   0.9926397      0.0023323615   0.0057433248   20.692132      19.218062      1.47407       -1.1986493      18657.567    
    166000   1.1303295      0.0023323615   0.0033860579   21.103902      19.425362      1.6785393     -1.1399579      18820.999    
    167000   0.93347495     0.0023323615  -0.002707716    20.824401      19.438191      1.3862103     -1.0981181      18834.68     
    168000   1.0404507      0.0023323615  -0.0028436153   20.907589      19.36252       1.5450693     -1.0940374      18743.512    
    169000   0.85903236     0.0023323615  -0.00050063001  20.56627       19.290607      1.2756631     -1.1345111      18575.012    
    170000   1.0733379      0.0023323615   0.0032269014   21.048534      19.454627      1.5939067     -1.217117       18535.396    
    171000   1.1097818      0.0023323615  -0.0003600051   21.21362       19.565594      1.648026      -0.94691159     18705.834    
    172000   1.0289181      0.0023323615   0.0025336725   20.978664      19.45072       1.5279435     -1.0686464      18766.881    
    173000   0.79272161     0.0023323615   0.0025264429   20.513421      19.33623       1.1771916     -1.0697717      18627.452    
    174000   1.0186182      0.0023323615  -0.0059886761   20.843979      19.331331      1.512648      -1.2788542      18528.627    
    175000   1.1241925      0.0023323615   0.0020237951   20.937209      19.267783      1.6694258     -1.2966165      18586.562    
    176000   1.0588687      0.0023323615  -0.0028362831   21.144327      19.571907      1.5724199     -1.0231899      18658.558    
    177000   1.0445719      0.0023323615  -0.00061408578  20.944807      19.393618      1.5511893     -1.2444148      18766.599    
    178000   1.1072834      0.0023323615   0.00056904796  20.80271       19.158394      1.6443159     -1.2366765      18755.772    
    179000   1.1263815      0.0023323615   0.00050655535  20.819322      19.146646      1.6726765     -1.287628       18636.526    
    180000   0.95824583     0.0023323615  -0.0030458744   20.631731      19.208736      1.4229951     -1.3094716      18624.306    
    181000   0.9230024      0.0023323615   0.0029886788   20.747291      19.376632      1.3706586     -1.0756079      18648.828    
    182000   0.86160851     0.0023323615  -0.0028828018   20.516067      19.236578      1.2794886     -1.2796579      18629.982    
    183000   0.9583734      0.0023323615   7.0792016e-05  20.733086      19.309902      1.4231845     -1.2478867      18656.639    
    184000   0.96012686     0.0023323615  -0.0011465804   20.495942      19.070154      1.4257884     -1.3166266      18677.104    
    185000   0.92347201     0.0023323615   0.00065855362  20.899793      19.528437      1.3713559     -0.94537211     18795.283    
    186000   1.0736562      0.0023323615  -0.0010662024   21.014716      19.420336      1.5943794     -1.1219916      18773.775    
    187000   0.85530233     0.0023323615  -0.0020332847   20.571648      19.301524      1.270124      -1.2209491      18772.768    
    188000   1.0173928      0.0023323615  -0.00056591979  21.071215      19.560386      1.5108283     -1.0502351      18703.167    
    189000   0.9285804      0.0023323615  -0.00041897173  20.747177      19.368235      1.3789419     -1.0471038      18739.796    
    190000   1.0142632      0.0023323615  -0.00019572253  20.764412      19.258231      1.5061809     -1.3370674      18622.93     
    191000   1.0564252      0.0023323615  -0.0044732236   20.756514      19.187723      1.5687915     -1.3183698      18567.037    
    192000   0.91025464     0.0023323615  -9.1738517e-05  20.72268       19.370952      1.3517281     -1.1139091      18642.164    
    193000   0.99518994     0.0023323615  -0.00039182635  20.574468      19.096611      1.4778571     -1.3579273      18741.552    
    194000   0.92104578     0.0023323615  -0.004156685    20.359968      18.992215      1.367753      -1.4863099      18617.466    
    195000   0.91778654     0.0023323615   0.00012972315  20.4203        19.057387      1.362913      -1.4372875      18555.63     
    196000   0.91478358     0.0023323615  -0.00075554965  20.656113      19.297659      1.3584536     -1.3436998      18538.997    
    197000   1.1139058      0.0023323615   0.00042854311  20.998415      19.344265      1.6541501     -1.0769128      18641.667    
    198000   0.99159276     0.0023323615  -0.0022372322   20.979202      19.506687      1.4725152     -1.0367625      18698.009    
    199000   1.0624604      0.0023323615  -0.00071306655  20.906116      19.328362      1.5777537     -1.2655248      18713.659    
    200000   1.2423966      0.0023323615  -0.0028324437   21.237825      19.392866      1.844959      -1.1552366      18675.311    
    201000   0.9902394      0.0023323615   0.00026016498  20.991207      19.520701      1.4705055     -1.0191163      18792.321    
    202000   1.0278344      0.0023323615   0.00089083566  20.815797      19.289463      1.5263341     -1.3120864      18776.021    
    203000   0.9162607      0.0023323615   0.00087277879  20.421343      19.060696      1.3606471     -1.3256743      18668.472    
    204000   0.9315211      0.0023323615   0.00097811512  20.632908      19.2496        1.3833088     -1.1720132      18708.864    
    205000   0.92482486     0.0023323615  -0.0014322277   20.660836      19.287471      1.3733649     -1.2412372      18871.227    
    206000   1.0015739      0.0023323615  -0.000166542    21.183288      19.695951      1.4873373     -0.89769175     18912.795    
    207000   0.92361448     0.0023323615  -0.0029913119   20.781946      19.410378      1.3715675     -1.0809787      18506.877    
    208000   0.9339059      0.0023323615   0.0011612168   20.721595      19.334744      1.3868503     -1.1693001      18591.558    
    209000   0.96897127     0.0023323615   0.0038996398   20.691885      19.252963      1.4389223     -1.1878622      18664.607    
    210000   0.93289503     0.0023323615  -0.0010046706   20.658025      19.272675      1.3853491     -1.1761794      18551.436    
    211000   0.93880209     0.0023323615   0.0012209326   20.411864      19.017743      1.3941211     -1.4022639      18547.272    
    212000   0.91838927     0.0023323615  -0.0028400102   20.506353      19.142545      1.3638081     -1.4316725      18442.903    
    213000   1.0803059      0.0023323615   0.00062285122  20.666497      19.062243      1.6042542     -1.3293289      18544.029    
    214000   1.1043988      0.0023323615  -0.0010416386   20.854117      19.214084      1.6400322     -1.1558889      18630.389    
    215000   1.0847038      0.0023323615  -0.0011481558   21.087084      19.476299      1.6107851     -1.0686591      18662.776    
    216000   1.1019067      0.0023323615   0.0026553507   21.104586      19.468255      1.6363315     -1.0312382      18732.698    
    217000   1.0666651      0.0023323615   0.00060074786  20.876553      19.292555      1.5839977     -1.1381628      18674.581    
    218000   1.1438587      0.0023323615   0.0015021077   20.905327      19.206696      1.6986302     -1.3175747      18619.157    
    219000   0.78979697     0.0023323615  -0.0030127895   20.516288      19.343439      1.1728485     -1.2644091      18630.473    
    220000   0.99424458     0.0023323615  -0.0035204294   20.828864      19.352411      1.4764532     -1.1695076      18706.262    
    221000   0.95466925     0.0023323615  -0.0028964493   20.6866        19.268917      1.4176838     -1.3691145      18482.635    
    222000   0.9892647      0.0023323615  -0.0012708618   20.752962      19.283904      1.4690581     -1.2646718      18625.765    
    223000   1.0257516      0.0023323615   0.00026709529  20.971496      19.448255      1.5232411     -1.1838119      18814.886    
    224000   1.2405963      0.0023323615   0.0021934149   21.380579      19.538294      1.8422856     -1.1126052      18617.466    
    225000   0.99826548     0.0023323615  -0.0024821892   20.639877      19.157453      1.4824242     -1.3791196      18549.457    
    226000   0.9396931      0.0023323615   0.00073848676  20.816527      19.421083      1.3954442     -1.1587256      18488.9      
    227000   1.0194823      0.0023323615   0.0040172867   20.754408      19.240477      1.5139313     -1.3650803      18579.59     
    228000   1.0599138      0.0023323615   0.002202656    20.733457      19.159485      1.573972      -1.2866807      18529.006    
    229000   0.93468575     0.0023323615  -0.0025542111   20.900785      19.512777      1.3880083     -0.92954914     18634.156    
    230000   0.9863092      0.0023323615   0.0024713447   20.949866      19.485197      1.4646692     -1.0156379      18766.398    
    231000   0.98286141     0.0023323615  -0.0022670688   21.030591      19.571041      1.4595492     -1.005378       18653.17     
    232000   1.0168115      0.0023323615  -0.001956494    20.77546       19.265495      1.5099651     -1.2088715      18869.275    
    233000   0.87402418     0.0023323615  -0.0018923119   20.665668      19.367742      1.2979259     -1.1779173      18710.951    
    234000   0.98655441     0.0023323615  -0.0024186692   20.794804      19.329771      1.4650333     -1.1214328      18714.687    
    235000   1.0975349      0.0023323615  -0.0042473839   21.010082      19.380243      1.6298393     -1.1142814      18612.695    
    236000   0.9542689      0.0023323615   0.00011221499  20.739228      19.322139      1.4170893     -1.0835899      18618.785    
    237000   1.0836365      0.0023323615   0.0021249221   21.026273      19.417072      1.6092003     -0.96900113     18893.352    
    238000   0.9455167      0.0023323615   0.0021935975   20.870328      19.466236      1.4040923     -1.1569645      19592.665    
    239000   1.0100621      0.0023323615   0.001235788    20.923554      19.423612      1.4999422     -1.09897        19853.202    
    240000   1.0877151      0.0023323615  -0.0015391407   21.185938      19.570681      1.6152569     -0.95002388     19933.005    
    241000   1.0187365      0.0023323615   0.00073065071  21.062461      19.549637      1.5128237     -1.0479893      19783.144    
    242000   0.96793879     0.0023323615   0.00041426431  20.772863      19.335474      1.4373891     -1.0857826      18907.504    
    243000   0.92390136     0.0023323615  -0.00045391876  20.642747      19.270754      1.3719935     -1.134556       18558.131    
    244000   0.86142087     0.0023323615   0.0018942556   20.408845      19.129635      1.27921       -1.3490485      18571.135    
    245000   1.0422336      0.0023323615   0.00058694701  20.989177      19.44146       1.5477169     -1.1177422      18615.639    
    246000   0.91571577     0.0023323615   3.3804716e-05  20.943365      19.583527      1.3598379     -1.0014701      18788.529    
    247000   1.0078911      0.0023323615  -0.00083849011  20.74082       19.244101      1.4967182     -1.2603948      18675.416    
    248000   1.074948       0.0023323615   0.00066519052  20.91719       19.320893      1.5962977     -1.2425133      18578.954    
    249000   0.96799225     0.0023323615   0.0036984807   20.710364      19.272896      1.4374685     -1.2177429      18655.15     
    250000   0.96817591     0.0023323615   0.0021015159   20.759543      19.321802      1.4377412     -1.1976098      18779.197    
    251000   0.92784352     0.0023323615  -0.0011121638   20.48589       19.108042      1.3778476     -1.3531703      18534.755    
    252000   0.89381549     0.0023323615  -0.00088522762  20.613572      19.286256      1.327316      -1.2014667      18674.759    
    253000   0.87670622     0.0023323615  -0.0035438029   20.5365        19.234591      1.3019087     -1.1688717      18529.45     
    254000   0.96558579     0.0023323615  -0.0022071583   20.972345      19.53845       1.4338949     -0.91091619     18760.013    
    255000   0.87836977     0.0023323615  -0.0033123852   20.328493      19.024114      1.3043791     -1.4631908      18512.472    
    256000   0.9789653      0.0023323615  -0.0040294381   20.634788      19.181025      1.4537635     -1.3268393      18366.72     
    257000   1.0067371      0.0023323615  -0.0035732065   21.035062      19.540057      1.4950047     -1.0560959      18484.627    
    258000   1.0426035      0.0023323615  -0.001286357    20.759328      19.211062      1.5482661     -1.3675601      18485.513    
    259000   1.1415761      0.0023323615   0.0024205702   21.047376      19.352136      1.6952405     -1.2335842      18458.52     
    260000   1.0618171      0.0023323615  -0.00016743855  20.84899       19.272191      1.5767984     -1.2311234      18524.415    
    261000   1.1313279      0.0023323615   0.0015824186   21.143286      19.463264      1.6800219     -1.0624997      18576.426    
    262000   1.028827       0.0023323615   0.0045292711   21.217862      19.690054      1.5278081     -0.99035093     18725.493    
    263000   0.99450042     0.0023323615  -0.0004357198   20.985643      19.50881       1.4768331     -1.0563701      18871.644    
    264000   0.97498148     0.0023323615  -0.0022462362   20.879247      19.431399      1.4478475     -1.1368262      18717.983    
    265000   0.81669103     0.0023323615   0.0015944344   20.49384       19.281053      1.2127862     -1.2501861      18587.663    
    266000   0.96576227     0.0023323615   0.0016095381   20.750891      19.316734      1.434157      -1.1180181      18561.244    
    267000   0.89457031     0.0023323615  -0.0042616859   20.606112      19.277675      1.3284369     -1.3978434      18484.089    
    268000   1.1287967      0.0023323615  -0.00067542738  21.185756      19.509493      1.676263      -1.0948655      18440.375    
    269000   1.0052192      0.0023323615   0.0022440464   20.71134       19.21859       1.4927505     -1.3091917      18611.415    
    270000   0.94154442     0.0023323615   0.00129483     20.650471      19.252277      1.3981935     -1.3163239      18565.021    
    271000   0.88648592     0.0023323615   0.0018304849   20.703334      19.386902      1.3164316     -1.1451039      18699.523    
    272000   0.87026527     0.0023323615   0.005106098    20.513968      19.221624      1.2923439     -1.3261714      18644.365    
    273000   0.96242719     0.0023323615  -0.00073142638  20.721135      19.29193       1.4292044     -1.205432       18522.074    
    274000   1.0405291      0.0023323615   0.0026797179   20.694915      19.149729      1.5451858     -1.2584547      19052.253    
    275000   0.94712625     0.0023323615   0.00065180716  20.670354      19.263871      1.4064825     -1.1841405      19190.141    
    276000   0.89613673     0.0023323615  -0.00093735602  20.712022      19.381259      1.330763      -1.0861507      19419.616    
    277000   0.98545356     0.0023323615   0.0018326165   20.435912      18.972513      1.4633985     -1.4468634      18693.723    
    278000   1.0368352      0.0023323615   0.0019523068   20.675697      19.135996      1.5397003     -1.4596712      18424.975    
    279000   0.82163465     0.0023323615  -0.0001812602   20.219488      18.99936       1.2201275     -1.4262535      18369.37     
    280000   1.038409       0.0023323615  -0.0020774224   20.826752      19.284715      1.5420374     -1.2473917      18352.566    
    281000   1.0947123      0.0023323615  -0.0031958523   20.776236      19.150588      1.6256478     -1.3591935      18397.246    
    282000   1.0234615      0.0023323615   0.0034652187   20.687019      19.167179      1.5198404     -1.3595231      18407.998    
    283000   0.99339706     0.0023323615   0.00032661111  20.87601       19.400815      1.4751946     -1.1043467      18490.633    
    284000   1.0342072      0.0023323615   0.0027764878   20.787321      19.251524      1.5357977     -1.3272396      18435.929    
    285000   1.0308659      0.0023323615  -0.00028552139  20.774596      19.24376       1.5308358     -1.3927514      18433.635    
    286000   0.91987731     0.0023323615   0.002177856    20.484219      19.118201      1.3660178     -1.5146918      18456.394    
    287000   0.94208429     0.0023323615  -0.00053867765  20.630703      19.231708      1.3989952     -1.1894699      18445.653    
    288000   0.96050883     0.0023323615   0.0025118436   20.827308      19.400953      1.4263556     -1.1954303      18578.411    
    289000   0.92738862     0.0023323615   0.0015284222   20.39083       19.013657      1.3771721     -1.4420302      18512.101    
    290000   1.0194627      0.0023323615  -0.0026627792   20.848937      19.335035      1.513902      -1.2529564      18486.287    
    291000   1.0954678      0.0023323615   0.0013352188   20.90765       19.28088       1.6267697     -1.3151779      18564.147    
    292000   0.86789752     0.0023323615  -0.0028935204   20.445732      19.156904      1.2888278     -1.2458294      18558.531    
    293000   1.0706418      0.0023323615  -0.00082032569  20.79678       19.206877      1.5899031     -1.3782699      18561.409    
    294000   0.96285156     0.0023323615   0.00052335785  20.567684      19.137849      1.4298346     -1.4600058      18900.791    
    295000   0.82268422     0.0023323615   0.0054015016   20.8108        19.589114      1.2216861     -1.0635099      18907.604    
    296000   0.99619385     0.0023323615   0.00060433803  20.863347      19.383999      1.4793479     -1.1186228      18713.118    
    297000   0.99721158     0.0023323615   0.0026039659   20.609674      19.128815      1.4808592     -1.349327       18611.953    
    298000   1.0352228      0.0023323615   0.00096317977  20.700943      19.163637      1.5373059     -1.3916653      18674.427    
    299000   1.1501237      0.0023323615   0.0004859744   20.9747        19.266766      1.7079337     -1.2836063      18508.61     
    300000   1.050836       0.0023323615   0.0024923479   20.635092      19.0746        1.5604915     -1.4447443      18593.968    
    301000   0.98867715     0.0023323615   0.0031634944   20.473512      19.005327      1.4681856     -1.4515629      18579.84     
    302000   0.93162316     0.0023323615  -0.0010840636   20.971487      19.588027      1.3834604     -0.89950033     18759.036    
    303000   1.0607121      0.0023323615  -0.00032426803  20.753446      19.178289      1.5751575     -1.2830418      18872.036    
    304000   0.92852923     0.0023323615   0.0021696271   20.608297      19.229431      1.3788659     -1.2388715      18858.676    
    305000   1.1931451      0.0023323615   0.0030518508   20.861361      19.089541      1.7718204     -1.3052189      18626.833    
    306000   1.1455528      0.0023323615  -0.001666571    21.082491      19.381345      1.7011459     -1.191549       18688.99     
    307000   0.94540955     0.0023323615  -0.0030635762   20.909502      19.505569      1.4039332     -1.2739006      18529.721    
    308000   0.98766516     0.0023323615   0.00089803614  20.39111       18.924428      1.4666828     -1.5148919      17678.208    
    309000   0.95582254     0.0023323615  -0.004694496    20.650667      19.23127       1.4193965     -1.2102974      18489.228    
    310000   0.89940846     0.0023323615  -0.001187763    20.482944      19.147323      1.3356216     -1.3011044      18550.45     
    311000   0.94309792     0.0023323615   0.00098266587  20.801172      19.400672      1.4005004     -1.0026554      18711.557    
    312000   1.0133627      0.0023323615   0.00076611717  20.995992      19.491148      1.5048436     -1.0385401      18781.78     
    313000   1.0980987      0.0023323615   0.00067930102  20.957573      19.326896      1.6306766     -1.1908899      18679.925    
    314000   1.0793305      0.0023323615  -0.0054427121   20.905741      19.302935      1.6028059     -1.2366865      19104.47     
    315000   0.82799327     0.0023323615   0.0019300208   20.454519      19.224949      1.22957       -1.1962339      19098.059    
    316000   0.87119247     0.0023323615   0.00066677696  20.70274       19.40902       1.2937208     -1.1984172      18931.129    
    317000   0.99951751     0.0023323615   0.0017020824   20.969181      19.484897      1.4842835     -0.9286459      19081.041    
    318000   0.90763945     0.0023323615  -0.0003154203   20.723382      19.375537      1.3478446     -1.135999       19266.34     
    319000   0.96370769     0.0023323615  -0.00088827935  20.853072      19.421966      1.4311059     -1.1559378      18650.364    
    320000   0.9805285      0.0023323615  -0.0042744309   20.864512      19.408428      1.4560848     -1.2286017      18446.345    
    321000   1.0137838      0.0023323615  -0.0037448911   20.78783       19.282361      1.5054689     -1.2792515      18599.183    
    322000   0.89544139     0.0023323615  -0.0016474644   20.637428      19.307697      1.3297305     -1.1776709      18621.015    
    323000   1.0650541      0.0023323615   0.00088384146  20.927099      19.345494      1.5816053     -1.2460996      18491.606    
    324000   1.0057089      0.0023323615  -0.00091718328  20.920354      19.426876      1.4934777     -1.0625018      18601.224    
    325000   1.0767163      0.0023323615   0.0036744378   20.712456      19.113532      1.5989237     -1.3175816      18681.023    
    326000   0.86862615     0.0023323615   0.0012291915   20.446557      19.156647      1.2899098     -1.342259       18562.632    
    327000   1.1011711      0.0023323615   0.0019113627   20.687452      19.052213      1.6352391     -1.3868551      18460.63     
    328000   0.9580766      0.0023323615   0.0019029167   20.624332      19.201588      1.4227437     -1.2605643      18684.047    
    329000   1.0196337      0.0023323615   0.0010668515   20.773619      19.259463      1.5141561     -1.2611172      18800.023    
    330000   0.93146616     0.0023323615   0.0014845535   20.788726      19.405499      1.3832273     -1.1207907      18724.538    
    331000   0.88447569     0.0023323615  -0.00033868445  20.96986       19.656414      1.3134464     -0.99769403     18892.136    
    332000   1.0768612      0.0023323615  -0.0038697741   21.021568      19.422429      1.5991388     -0.95737443     19236.235    
    333000   0.99224069     0.0023323615  -0.00094279798  20.875409      19.401931      1.4734774     -1.1339903      19616.532    
    334000   0.9848093      0.0023323615   0.0020892318   20.870808      19.408366      1.4624418     -1.1885127      19676.914    
    335000   1.063352       0.0023323615   0.00037360356  21.261751      19.682673      1.5790777     -0.90856756     19377.681    
    336000   0.87389983     0.0023323615   0.0042642735   20.600766      19.303025      1.2977412     -1.1541001      19011.337    
    337000   1.0695837      0.0023323615   0.0050840983   21.078005      19.489673      1.5883318     -1.0952725      18640.834    
    338000   0.99711137     0.0023323615   0.0042339586   20.671104      19.190394      1.4807104     -1.3829109      18708.72     
    339000   1.0506302      0.0023323615  -0.0022793484   21.00021       19.440024      1.5601858     -1.1758497      18512.946    
    340000   1.1136574      0.0023323615   0.0048994016   21.270045      19.616264      1.6537813     -1.002825       18563.84     
    341000   1.0352109      0.0023323615   0.0025170609   21.140251      19.602963      1.5372882     -0.97278996     18806.392    
    342000   1.0141686      0.0023323615   0.0015261655   21.041559      19.535518      1.5060404     -0.98042559     19729.554    
    343000   1.1294738      0.0023323615   0.00036518055  21.35771       19.680441      1.6772686     -0.91718786     19927.51     
    344000   0.97582261     0.0023323615   0.00143308     21.045243      19.596146      1.4490966     -0.79649322     19862.53     
    345000   0.95455546     0.0023323615   0.0027469243   20.551742      19.134228      1.4175149     -1.3577747      18714.697    
    346000   0.9227235      0.0023323615  -0.00017355615  20.729333      19.359088      1.3702444     -1.1345034      18505.734    
    347000   1.048499       0.0023323615  -0.00022927062  20.637501      19.08048       1.5570211     -1.4650897      18416.238    
    348000   0.97712619     0.0023323615  -0.001078426    20.916192      19.465159      1.4510324     -1.0975032      18577.256    
    349000   1.0728625      0.0023323615   0.0038469687   20.579911      18.98671       1.5932008     -1.4574744      18497.987    
    350000   1.042214       0.0023323615  -0.001589713    21.015642      19.467954      1.5476878     -1.0850925      18498.33     
    351000   1.0041308      0.0023323615  -0.0015089703   20.583243      19.092109      1.4911342     -1.4471575      18471.248    
    352000   1.0220104      0.0023323615  -0.00076151724  20.88939       19.371705      1.5176855     -1.2181785      18415.582    
    353000   1.099563       0.0023323615  -0.00019259906  21.009428      19.376577      1.6328511     -1.2034413      18871.026    
    354000   0.90232883     0.0023323615   0.0006713047   20.622297      19.282339      1.3399583     -1.1226447      18834.225    
    355000   0.96149374     0.0023323615  -0.0022569454   20.905567      19.477749      1.4278182     -1.0922312      18754.951    
    356000   1.052898       0.0023323615   0.0012942136   20.876153      19.3126        1.5635536     -1.1239223      18605.899    
    357000   1.0652216      0.0023323615  -0.0020795274   20.959284      19.37743       1.581854      -1.1709937      19072.761    
    358000   0.96006433     0.0023323615  -0.00307625     20.785395      19.3597        1.4256955     -1.1851773      19669.012    
    359000   1.1209908      0.0023323615  -0.00023885782  21.024988      19.360317      1.6646714     -1.0798364      19948.379    
    360000   1.1729394      0.0023323615   0.001873948    21.293304      19.551489      1.741815      -1.0732577      19924.606    
    361000   0.91135001     0.0023323615   0.0022136198   20.872338      19.518983      1.3533548     -1.1295811      19443.347    
    362000   1.0497399      0.0023323615  -0.0021518887   21.069045      19.510181      1.5588637     -1.2084301      19617.48     
    363000   1.0653924      0.0023323615  -0.0020427729   20.967594      19.385486      1.5821077     -1.1222531      19484.909    
    364000   0.83268385     0.0023323615  -0.0054374775   20.710302      19.473766      1.2365355     -1.0642617      18803.88     
    365000   0.89671166     0.0023323615  -0.00085930637  20.920081      19.588464      1.3316168     -1.0586126      18659.813    
    366000   0.88356249     0.0023323615   0.0010434943   20.850695      19.538605      1.3120903     -1.1935258      18738.044    
    367000   0.9887584      0.0023323615  -0.0022727599   20.735331      19.267024      1.4683062     -1.3040558      18509.64     
    368000   1.1139166      0.0023323615  -0.0020983577   21.029421      19.375255      1.6541662     -1.1115284      18506.4      
    369000   1.0734709      0.0023323615   0.00021665854  20.994498      19.400394      1.5941043     -1.1883193      18522.816    
    370000   0.94134857     0.0023323615  -0.0020963842   20.965797      19.567895      1.3979026     -1.0279815      18759.04     
    371000   1.0412792      0.0023323615  -0.0040653756   20.776425      19.230126      1.5462996     -1.3220591      18547.578    
    372000   1.101044       0.0023323615  -0.0012979834   20.940184      19.305134      1.6350504     -1.265389       18650.364    
    373000   1.0820438      0.0023323615  -0.00076603092  20.787053      19.180218      1.606835      -1.252886       18469.013    
    374000   1.0511412      0.0023323615   0.0043788955   21.089284      19.52834       1.5609447     -1.1583872      18455.913    
    375000   1.0204595      0.0023323615   0.0012772041   20.916976      19.401593      1.5153824     -1.1406365      18458.309    
    376000   0.90109293     0.0023323615   0.0014503566   20.849682      19.511559      1.338123      -0.93037378     18475.717    
    377000   1.0291936      0.0023323615  -0.0010164445   20.968659      19.440306      1.5283525     -0.98940838     18699.677    
    378000   0.9294772      0.0023323615  -0.0030632183   20.879934      19.49966       1.3802736     -1.032129       19073.435    
    379000   0.87777381     0.0023323615   0.00018032622  20.759993      19.456498      1.3034941     -1.1149833      19620.276    
    380000   0.96128477     0.0023323615   0.0010213286   21.008614      19.581106      1.4275079     -0.99171593     19878.527    
    381000   1.1164226      0.0023323615  -0.00024482286  21.253388      19.595501      1.6578876     -1.0157345      19357.425    
    382000   0.88048807     0.0023323615  -1.9792803e-05  20.632914      19.325389      1.3075248     -1.240302       18861.388    
    383000   1.0351188      0.0023323615   0.0014031399   20.799845      19.262694      1.5371515     -1.2092512      18832.697    
    384000   0.88092756     0.0023323615   0.00014922517  20.699867      19.391689      1.3081774     -1.1193329      18567.024    
    385000   0.96619297     0.0023323615  -0.0017815573   20.777476      19.342679      1.4347966     -1.275579       18444.593    
    386000   1.0899178      0.0023323615  -0.0042669882   21.050355      19.431827      1.6185279     -1.2635093      18427.322    
    387000   0.99727206     0.0023323615   0.002958694    20.896642      19.415693      1.480949      -1.1149946      18565.58     
    388000   0.96675239     0.0023323615   0.001792869    21.020542      19.584915      1.4356273     -1.0365203      18681.767    
    389000   0.91544993     0.0023323615   0.0024247953   20.695163      19.33572       1.3594431     -1.2425454      18505.971    
    390000   1.0098435      0.0023323615   0.0032373329   20.603932      19.104315      1.4996176     -1.4184464      18404.023    
    391000   0.93279788     0.0023323615   0.00070454019  20.506203      19.120998      1.3852048     -1.2630299      18272.784    
    392000   1.0418714      0.0023323615  -0.0037028678   20.557385      19.010206      1.547179      -1.4259692      18560.509    
    393000   1.1153223      0.0023323615   0.00012974633  21.01857       19.362316      1.6562536     -1.2513088      18404.176    
    394000   0.93027117     0.0023323615  -0.0039773716   20.453659      19.072206      1.3814527     -1.3521114      18526.681    
    395000   0.99131017     0.0023323615   0.0054438578   20.713935      19.241839      1.4720956     -1.2815574      18334.45     
    396000   0.84896976     0.0023323615  -5.3962957e-05  20.613758      19.353038      1.2607201     -1.1334423      18405.554    
    397000   0.93749812     0.0023323615  -0.0039171482   20.991504      19.59932       1.3921847     -0.93826613     19025.459    
    398000   1.0269025      0.0023323615   0.001451511    20.676874      19.151924      1.5249502     -1.3710317      18916.129    
    399000   1.0497874      0.0023323615   0.0025596849   20.860986      19.302051      1.5589342     -1.1228565      18629.092    
    400000   1.0429017      0.0023323615  -0.0027411728   21.161041      19.612332      1.548709      -0.9498461      19121.211    
    401000   1.0178709      0.0023323615   0.0011167356   20.981162      19.469623      1.5115383     -0.95894997     19026.126    
    402000   0.91495846     0.0023323615  -0.00043574982  20.916         19.557287      1.3587133     -0.98546526     18628.421    
    403000   0.93652724     0.0023323615  -0.003827254    20.808446      19.417703      1.390743      -1.089787       18598.68     
    404000   1.132477       0.0023323615   0.0035144883   21.161719      19.479991      1.6817284     -1.0915119      18559.301    
    405000   1.0783684      0.0023323615  -0.00047843333  20.888602      19.287225      1.6013771     -1.2452966      18686.377    
    406000   0.89547716     0.0023323615  -0.0026297944   20.768375      19.438591      1.3297836     -1.1426573      18574.94     
    407000   0.94655379     0.0023323615  -0.0037278391   20.968015      19.562382      1.4056324     -1.0424945      18566.575    
    408000   1.0203825      0.0023323615  -0.0013076296   21.000731      19.485463      1.5152681     -0.94757378     18593.646    
    409000   0.9067421      0.0023323615   0.00012117912  20.613963      19.267451      1.346512      -1.174347       18498.923    
    410000   1.0202802      0.0023323615   0.00061515545  20.909398      19.394282      1.515116      -1.1198379      18511.552    
[...]
    861000   0.98658163     0.0023323615   0.0016248104   20.601457      19.136383      1.4650737     -1.3599201      18497.38     
    862000   0.94884348     0.0023323615  -0.00030867348  20.703749      19.294717      1.4090326     -1.2852989      18384.596    
    863000   0.97076541     0.0023323615  -0.0018404225   20.565056      19.123469      1.4415866     -1.51588        18351.075    
    864000   0.93451631     0.0023323615  -0.0031825589   20.635981      19.248224      1.3877567     -1.3622287      18252.961    
    865000   0.90743016     0.0023323615  -0.001017652    20.717301      19.369767      1.3475338     -1.0931098      18477.55     
    866000   0.92929907     0.0023323615   0.00043370139  20.765653      19.385644      1.3800091     -1.2588985      18501.783    
    867000   1.04539        0.0023323615   0.0014256181   20.676529      19.124125      1.5524041     -1.336878       18006.669    
    868000   0.96710632     0.0023323615  -0.0008411587   20.512461      19.076308      1.4361529     -1.3639691      18514.622    
    869000   0.91802616     0.0023323615   0.0023328448   20.654601      19.291332      1.3632688     -1.2121654      18740.626    
    870000   0.99708216     0.0023323615   0.00026152161  20.642133      19.161466      1.480667      -1.2801466      18516.638    
    871000   1.0347728      0.0023323615   0.0014883804   20.89367       19.357033      1.5366376     -1.2754038      18345.398    
    872000   1.0119315      0.0023323615   3.4334916e-05  20.621889      19.119171      1.5027182     -1.4352907      18454.296    
    873000   0.91749535     0.0023323615  -0.0034563818   20.57109       19.20861       1.3624806     -1.3947449      18320.205    
    874000   1.0061598      0.0023323615   0.0021042897   20.908356      19.414209      1.4941473     -1.2266411      18349.024    
    875000   0.96696673     0.0023323615  -0.0012292721   20.726854      19.290908      1.4359456     -1.2324345      18518.235    
    876000   1.1413427      0.0023323615  -0.0016717388   20.856357      19.161463      1.6948939     -1.3114736      18386.587    
    877000   0.99557065     0.0023323615  -0.0016661496   20.860382      19.38196       1.4784224     -1.2940565      18704.306    
    878000   0.94061553     0.0023323615   0.0035440937   20.630209      19.233395      1.3968141     -1.129415       18591.966    
    879000   0.92809117     0.0023323615  -0.001487021    20.801193      19.422978      1.3782154     -1.0386422      18768.649    
    880000   0.98629257     0.0023323615  -0.0018095932   20.896269      19.431625      1.4646445     -1.1664635      18754.877    
    881000   1.1109865      0.0023323615  -0.0011513494   21.123106      19.473291      1.6498149     -1.0455211      18732.986    
    882000   1.091729       0.0023323615  -0.0011378919   20.862721      19.241503      1.6212175     -1.2045997      18787.185    
    883000   1.0001248      0.0023323615  -0.0016897413   20.555857      19.070672      1.4851853     -1.3687339      18673.816    
    884000   0.87133474     0.0023323615  -0.00081178976  20.54434       19.250407      1.2939321     -1.2435892      18635.256    
    885000   0.93987747     0.0023323615  -0.0017875307   20.768377      19.372659      1.3957181     -1.1267438      18581.064    
    886000   0.96778401     0.0023323615   0.0011265804   20.687266      19.250106      1.4371593     -1.2561687      18840.898    
    887000   0.93557378     0.0023323615  -0.0021119116   20.733186      19.343859      1.3893271     -1.1370842      18505.601    
    888000   1.0116757      0.0023323615   0.0062476495   20.793759      19.291421      1.5023384     -1.2540415      18529.948    
    889000   0.90495201     0.0023323615  -0.00014446295  20.476957      19.133103      1.3438537     -1.4311432      18339.304    
    890000   0.97349333     0.0023323615  -0.00022501968  20.784322      19.338684      1.4456376     -1.253871       18249.577    
    891000   1.0504186      0.0023323615  -0.0003594105   20.649222      19.08935       1.5598716     -1.4459057      18270.616    
    892000   1.1630606      0.0023323615   0.0021027411   20.916514      19.189369      1.727145      -1.3833877      18317.72     
    893000   1.0604889      0.0023323615  -0.0015266748   20.892046      19.31722       1.5748261     -1.2112822      18444.583    
    894000   0.90191906     0.0023323615  -0.0028044457   20.718736      19.379386      1.3393498     -1.237489       18447.061    
    895000   1.1455848      0.0023323615   0.00022435402  20.964687      19.263494      1.7011934     -1.2563929      18300.32     
    896000   1.115885       0.0023323615   0.0039832191   20.928515      19.271426      1.6570893     -1.2206981      18297.763    
    897000   1.1187701      0.0023323615  -0.00036875026  20.92433       19.262956      1.6613736     -1.322591       18295.225    
    898000   1.0121158      0.0023323615   7.4476365e-05  20.448862      18.94587       1.502992      -1.4824812      18281.951    
    899000   0.97073169     0.0023323615  -0.00044245312  20.766591      19.325055      1.4415366     -1.2217807      18319.882    
    900000   1.0175551      0.0023323615  -0.0017391358   20.688574      19.177505      1.5110693     -1.3741188      18324.894    
    901000   0.92658035     0.0023323615  -0.0017138295   20.383424      19.007453      1.3759718     -1.5489507      18024.397    
    902000   0.97811768     0.0023323615   0.0038986714   20.887545      19.43504       1.4525048     -1.1889093      18310.082    
    903000   1.0501361      0.0023323615   0.0046673018   20.726926      19.167473      1.5594522     -1.3931154      18194.219    
    904000   0.87543453     0.0023323615  -0.0022047608   20.020291      18.720271      1.3000203     -1.6320236      18271.864    
    905000   0.86870105     0.0023323615  -0.0015148201   20.574318      19.284297      1.2900211     -1.1960205      18321.823    
    906000   1.0443416      0.0023323615  -0.0033055288   20.863853      19.313005      1.5508473     -1.1597582      18648.914    
    907000   0.88667371     0.0023323615   9.4360198e-05  20.688587      19.371877      1.3167105     -1.1400919      18713.346    
    908000   0.98077641     0.0023323615  -0.0019663356   20.973428      19.516975      1.456453      -0.9959077      18681.372    
    909000   0.97979377     0.0023323615  -0.0021550298   20.889846      19.434852      1.4549938     -1.1412968      18759.777    
    910000   1.1509779      0.0023323615   0.003775642    20.987115      19.277912      1.7092022     -1.2204847      18600.961    
    911000   1.1349456      0.0023323615   0.001289188    20.980717      19.295323      1.6853942     -1.1952062      18417.24     
    912000   0.9327529      0.0023323615  -0.0022246208   20.739423      19.354285      1.3851381     -1.2018772      18376.577    
    913000   0.95695549     0.0023323615   0.0024384088   20.7052        19.284121      1.4210789     -1.3490197      18491.13     
    914000   0.95870576     0.0023323615   0.00087444855  20.659932      19.236253      1.4236781     -1.2519182      18515.044    
    915000   0.99907452     0.0023323615   0.0036806877   20.550375      19.06675       1.4836257     -1.3979549      18511.408    
    916000   0.94831092     0.0023323615  -0.0020045054   20.474915      19.066673      1.4082417     -1.3696934      18417.747    
    917000   1.0465538      0.0023323615   0.0016254123   20.84523       19.291097      1.5541324     -1.231244       18463.7      
    918000   0.92817972     0.0023323615   0.0014407366   20.605455      19.227108      1.3783469     -1.2729456      18455.947    
    919000   1.0262024      0.0023323615   0.0012250594   20.739227      19.215316      1.5239105     -1.2430485      18420.863    
    920000   1.0875894      0.0023323615  -0.0013175539   20.834475      19.219405      1.6150703     -1.1971658      18409.265    
    921000   1.0898404      0.0023323615   0.0016259561   21.022908      19.404495      1.618413      -1.2386077      18516.119    
    922000   1.0737696      0.0023323615   0.00074987576  20.847537      19.25299       1.5945479     -1.3128172      18435.531    
    923000   0.84467665     0.0023323615   0.0015669307   20.621482      19.367137      1.2543448     -1.2157682      18293.031    
    924000   1.0021323      0.0023323615  -0.0032025159   20.668033      19.179866      1.4881665     -1.281284       18365.372    
    925000   0.92848775     0.0023323615  -0.0049232789   20.812886      19.434081      1.3788043     -1.1208752      18521.159    
    926000   1.0469311      0.0023323615  -0.00049927218  20.945747      19.391054      1.5546926     -1.1418613      18568.254    
    927000   0.96697049     0.0023323615   0.00054238647  20.806713      19.370762      1.4359512     -1.1974123      18429.088    
    928000   1.040201       0.0023323615   0.00066939809  20.866807      19.322109      1.5446985     -1.1602056      18419.684    
    929000   1.0905143      0.0023323615   0.0015309192   20.774724      19.15531       1.6194137     -1.3810908      18227.332    
    930000   1.0970529      0.0023323615  -0.0018958508   20.964021      19.334897      1.6291235     -1.1861284      18523.473    
    931000   1.1733689      0.0023323615   0.00058093133  21.218738      19.476285      1.7424527     -1.1015193      18487.866    
    932000   1.0828056      0.0023323615  -0.0023463078   20.822498      19.214532      1.6079663     -1.3087386      18409.621    
    933000   0.82737576     0.0023323615  -0.0067127267   20.799392      19.570739      1.228653      -1.0606919      18387.681    
    934000   0.89111125     0.0023323615  -0.00093535853  20.63855       19.31525       1.3233002     -1.2006305      18322.364    
    935000   1.072981       0.0023323615   0.0045274155   20.669379      19.076002      1.5933767     -1.4086084      18265.778    
    936000   1.0036372      0.0023323615   0.0024399143   20.697511      19.20711       1.4904013     -1.336854       18234.221    
    937000   1.0110001      0.0023323615   0.0023134456   20.73958       19.238245      1.5013351     -1.2939825      18465.592    
    938000   0.97370001     0.0023323615  -0.0040152572   20.800626      19.354681      1.4459445     -1.2447406      18311.44     
    939000   0.94896877     0.0023323615  -0.0021981975   20.489752      19.080534      1.4092186     -1.349008       18270.068    
    940000   0.99955942     0.0023323615  -0.0027160242   20.840157      19.355812      1.4843457     -1.255823       18998.846    
    941000   1.1119109      0.0023323615   0.00015286851  20.863301      19.212113      1.6511876     -1.2942123      18702.052    
    942000   1.0382334      0.0023323615   0.001110195    20.649468      19.107691      1.5417765     -1.3898383      19682.847    
    943000   0.99283131     0.0023323615   0.00015211953  20.91331       19.438956      1.4743545     -1.1066053      19763.479    
    944000   1.0252793      0.0023323615  -0.0020866221   20.821016      19.298477      1.5225397     -1.1907378      19457.735    
    945000   0.94704178     0.0023323615  -0.00059826674  20.941148      19.534791      1.406357      -1.0256388      19634.19     
    946000   0.9703832      0.0023323615   0.00015493111  20.679185      19.238166      1.441019      -1.2137896      19686.489    
    947000   0.90733341     0.0023323615   0.0010633616   20.53158       19.18419       1.3473901     -1.2413859      19621.506    
    948000   0.90293319     0.0023323615   0.00014937533  20.477019      19.136163      1.3408558     -1.35451        19581.976    
    949000   1.0185431      0.0023323615   0.0017958621   20.942061      19.429525      1.5125365     -1.0679437      19913.158    
    950000   1.0973372      0.0023323615  -0.0045926083   21.055071      19.425525      1.6295458     -1.1492475      19823.354    
    951000   1.0566002      0.0023323615  -0.00037409703  21.245232      19.676181      1.5690512     -0.868631       19718.648    
    952000   0.95653394     0.0023323615  -0.0040394075   20.983593      19.563141      1.4204529     -1.0186582      20158.028    
    953000   1.0786502      0.0023323615   0.00084694195  21.096376      19.494581      1.6017955     -1.0175638      19981.745    
    954000   0.98325971     0.0023323615  -0.00030723638  20.66928       19.209139      1.4601407     -1.3346237      20011.314    
    955000   1.0201438      0.0023323615  -0.00033061761  21.098492      19.583579      1.5149135     -1.0846699      19970.986    
    956000   1.1761343      0.0023323615   0.00336598     21.259543      19.512983      1.7465595     -1.0382773      20263.946    
    957000   0.97760147     0.0023323615  -0.00069216711  20.744226      19.292488      1.4517382     -1.1461211      19882.032    
    958000   1.2058489      0.0023323615  -0.00040272453  21.001628      19.210943      1.7906856     -1.3069223      19564.78     
    959000   1.1489338      0.0023323615   0.00044750986  21.003478      19.297311      1.7061666     -1.0826421      19641.206    
    960000   0.90163536     0.0023323615  -0.0032142597   20.927358      19.58843       1.3389285     -1.0576882      19987.423    
    961000   1.0114496      0.0023323615  -0.0011960193   20.890009      19.388007      1.5020027     -1.1869215      19205.643    
    962000   1.1395479      0.0023323615  -0.00050576641  20.996283      19.304055      1.6922286     -1.1915676      18783.628    
    963000   1.0472831      0.0023323615   0.0047397327   20.852959      19.297744      1.5552155     -1.3472659      19930.299    
    964000   0.8175448      0.0023323615   0.0017558669   20.256537      19.042483      1.214054      -1.440947       19395.526    
    965000   1.0214293      0.0023323615  -0.0016288467   20.954342      19.43752       1.5168225     -1.2453558      19631.927    
    966000   0.95804527     0.0023323615  -0.00027344882  20.592982      19.170285      1.4226972     -1.3402055      19990.954    
    967000   0.85623759     0.0023323615   0.0023667541   20.41173       19.140218      1.2715128     -1.4019806      19660.903    
    968000   0.9831857      0.0023323615   0.0012056473   20.590348      19.130317      1.4600308     -1.3755074      19822.881    
    969000   0.96644205     0.0023323615   0.0016705377   20.794463      19.359297      1.4351664     -1.3423636      19232.669    
    970000   1.0143428      0.0023323615  -0.0026731639   20.745298      19.238999      1.506299      -1.3767835      18404.512    
    971000   1.157489       0.0023323615   0.0026277304   21.093698      19.374827      1.7188711     -1.2173163      18851.335    
    972000   0.97262692     0.0023323615  -0.0049262709   20.846448      19.402097      1.444351      -1.1509774      19529.916    
    973000   1.3364659      0.0023323615  -0.0031351117   21.217635      19.232983      1.9846518     -1.2577567      18512.95     
    974000   1.0020015      0.0023323615   0.0019027091   20.858716      19.370744      1.4879723     -1.3089438      19134.521    
    975000   0.92660438     0.0023323615   0.0059478295   20.506422      19.130414      1.3760075     -1.3248976      19285.322    
    976000   0.99969912     0.0023323615  -0.0019862108   20.814038      19.329485      1.4845532     -1.3224266      18439.512    
    977000   1.0567719      0.0023323615  -0.0016168845   20.813723      19.244416      1.5693063     -1.2449418      19794.553    
    978000   1.0847165      0.0023323615   0.00056319649  21.083965      19.473161      1.610804      -1.1832215      19834.285    
    979000   1.1814734      0.0023323615  -0.0013794293   20.689754      18.935266      1.754488      -1.4374983      19781.14     
    980000   1.0528908      0.0023323615   0.0029094256   20.787025      19.223482      1.5635429     -1.3976272      19716.499    
    981000   1.1070866      0.0023323615  -0.00073278539  21.063738      19.419714      1.6440236     -1.2189848      20562.02     
    982000   0.94430242     0.0023323615  -0.0021193994   20.763913      19.361624      1.4022891     -1.2639758      21044.197    
    983000   0.94118769     0.0023323615   0.0015402408   20.520087      19.122424      1.3976637     -1.3504534      19888.89     
    984000   0.93838655     0.0023323615  -0.002644032    20.893746      19.500242      1.393504      -1.1648963      19696.636    
    985000   0.9186023      0.0023323615  -0.00063669515  20.399687      19.035563      1.3641244     -1.3617173      19560.903    
    986000   1.0107833      0.0023323615   0.0008914685   20.902942      19.401929      1.5010132     -1.2255976      20018.033    
    987000   1.0966397      0.0023323615   0.0016245802   21.22024       19.59173       1.6285099     -1.0597737      20211.285    
    988000   1.0425122      0.0023323615  -0.00023654237  20.872014      19.323883      1.5481306     -1.1119499      20622.547    
    989000   0.99666185     0.0023323615  -0.0046789969   20.835563      19.35552       1.4800428     -1.1766224      20337.073    
    990000   0.93456748     0.0023323615  -0.0019270446   20.773548      19.385715      1.3878327     -1.1059942      20681.996    
    991000   0.96042995     0.0023323615   0.0012834306   20.813189      19.38695       1.4262385     -1.0446695      20564.879    
    992000   1.0283772      0.0023323615  -0.00089194295  21.140145      19.613005      1.5271401     -0.92399881     20158.635    
    993000   1.1389411      0.0023323615  -0.0011961123   21.144411      19.453084      1.6913275     -0.97572101     20316.491    
    994000   1.0786584      0.0023323615   0.00080342718  20.998142      19.396335      1.6018078     -1.161287       20039.676    
    995000   1.0755931      0.0023323615  -0.0024885093   20.936676      19.33942       1.5972557     -1.3771594      19013.25     
    996000   1.0559885      0.0023323615  -0.0007243092   20.767036      19.198893      1.5681429     -1.4373434      18149.414    
    997000   1.0319155      0.0023323615  -8.3055494e-05  20.70677       19.174375      1.5323946     -1.3934347      18281.398    
    998000   1.0260715      0.0023323615  -0.00078757382  20.553781      19.030065      1.5237161     -1.451314       18400.99     
    999000   1.1250979      0.0023323615   0.003238277    20.978147      19.307377      1.6707703     -1.1751865      18481.55     
   1000000   0.95919081     0.0023323615   7.8685211e-05  20.690454      19.266056      1.4243984     -1.2342239      18368.464    
Loop time of 53.4648 on 1 procs for 1000000 steps with 100 atoms

Performance: 8080089.177 tau/day, 18703.910 timesteps/s
99.4% CPU use with 1 MPI tasks x 1 OpenMP threads

MPI task timing breakdown:
Section |  min time  |  avg time  |  max time  |%varavg| %total
---------------------------------------------------------------
Pair    | 44.493     | 44.493     | 44.493     |   0.0 | 83.22
Bond    | 1.2602     | 1.2602     | 1.2602     |   0.0 |  2.36
Neigh   | 3.8035     | 3.8035     | 3.8035     |   0.0 |  7.11
Comm    | 1.372      | 1.372      | 1.372      |   0.0 |  2.57
Output  | 0.24707    | 0.24707    | 0.24707    |   0.0 |  0.46
Modify  | 1.9371     | 1.9371     | 1.9371     |   0.0 |  3.62
Other   |            | 0.3519     |            |       |  0.66

Nlocal:            100 ave         100 max         100 min
Histogram: 1 0 0 0 0 0 0 0 0 0
Nghost:            294 ave         294 max         294 min
Histogram: 1 0 0 0 0 0 0 0 0 0
Neighs:           4851 ave        4851 max        4851 min
Histogram: 1 0 0 0 0 0 0 0 0 0

Total # of neighbors = 4851
Ave neighs/atom = 48.51
Ave special neighs/atom = 1.98
Neighbor list builds = 97932
Dangerous builds = 80335

write_data      ${outputfile_assembled} nofix nocoeff
write_data      7_assembled.data nofix nocoeff
System init for write_data ...
Generated 0 of 6 mixed pair_coeff terms from geometric mixing rule

Total wall time: 0:00:54
