LAMMPS data file via write_data, version 23 Jun 2022, timestep = 1000000

100 atoms
4 atom types
99 bonds
1 bond types

0 35 xlo xhi
0 35 ylo yhi
0 35 zlo zhi

Masses

1 1
2 1
3 1
4 1

Atoms # full

34 1 3 -1 9.9479435940422 33.63126529149173 23.784882301246014 0 0 0
40 1 2 0 11.148449442638146 33.708540957650925 24.420859259731234 0 0 0
41 1 3 -1 11.666659828530388 32.85175321711141 24.62458745621137 0 0 0
39 1 2 0 11.690240537696534 34.44893842394221 24.796520926737447 0 0 0
33 1 4 1 10.046170725528656 33.57560935626058 24.741415528648027 0 0 0
36 1 4 1 11.180826891117201 0.0485715484921343 24.23616601619094 0 1 0
37 1 2 0 11.860368156321117 34.84082880900688 23.638863748576373 0 0 0
70 1 3 -1 16.929839197015223 34.01592504979695 24.969207563762186 0 0 0
35 1 4 1 10.444004588071987 34.40372357011675 24.0715753456922 0 0 0
71 1 3 -1 16.790406848708223 33.86719287532615 25.922624482001456 0 0 0
72 1 4 1 16.6169786188962 33.576743497626055 26.833139138259007 0 0 0
73 1 3 -1 15.708282711886397 33.7616108324493 26.9059744184976 0 0 0
96 1 3 -1 12.422186543377107 29.98834857831657 25.668042056653523 0 0 0
30 1 3 -1 10.510855744380898 32.224141370565484 25.618491577935057 0 0 0
31 1 1 0 10.657710143248794 31.817863280620386 24.735391987003702 0 0 0
29 1 3 -1 10.034402824122648 31.41596391374045 25.780744418281028 0 0 0
82 1 4 1 11.531034961901419 32.97231520311774 25.906181112786882 0 0 0
81 1 3 -1 12.129142194648702 32.182508990634275 25.905415492169517 0 0 0
32 1 4 1 10.022317726586039 32.619884402437165 24.845343615287945 0 0 0
28 1 1 0 10.694253357508508 30.83474795206194 26.225812319794514 0 0 0
1 1 2 0 10.495708448160906 33.441474983898765 29.947457726622613 0 0 0
2 1 4 1 11.255880064121522 33.59954830144351 30.424796989485827 0 0 0
3 1 3 -1 11.381908584653782 32.78084668012199 30.92404495740513 0 0 0
14 1 1 0 9.2908474562159 33.95784734527096 28.49292859671977 0 0 0
13 1 4 1 9.494864391537782 33.80938724795303 29.42131768645553 0 0 0
15 1 2 0 10.163679290151078 33.506901183875435 28.631927890434277 0 0 0
26 1 3 -1 11.290145473680719 32.11017734436687 26.52632698951104 0 0 0
45 1 3 -1 11.32929889809051 29.950123284319663 23.560810314817072 0 0 0
27 1 4 1 11.467526001731303 31.15101336636949 26.576694388696176 0 0 0
42 1 4 1 11.856568544563874 31.88056465642962 24.426669067011193 0 0 0
25 1 4 1 10.414230155870964 32.081710124123795 26.732588585163274 0 0 0
43 1 1 0 12.378757707553735 31.475389546880372 23.643381695390634 0 0 0
16 1 4 1 10.451300716489524 34.15049382085498 29.271285041626324 0 0 0
23 1 4 1 9.583012842940553 32.4733464934865 28.10914294663058 0 0 0
24 1 3 -1 9.598256162510207 31.90233010605739 27.29083951594351 0 0 0
83 1 4 1 10.62125619187089 33.01875427660418 26.384574076654392 0 0 0
22 1 3 -1 10.500890457770746 32.58854263432687 28.018354812706374 0 0 0
44 1 4 1 11.604652677309316 30.86701836658493 23.541975433317017 0 0 0
86 1 2 0 11.89581123516647 33.99614364296362 26.049159723653805 0 0 0
84 1 3 -1 10.64042666970281 33.73396520577113 25.74551991686172 0 0 0
85 1 2 0 11.032418535129652 34.50223998748358 26.118263680325995 0 0 0
100 1 3 -1 12.053925311956716 28.947182595101975 24.032895015637543 0 0 0
99 1 4 1 12.299092024664995 29.721552469484426 24.55558816553964 0 0 0
38 1 4 1 12.397865669068908 34.2134005454504 24.226428622171625 0 0 0
74 1 3 -1 15.44976795873344 32.8964402386199 27.23868931499059 0 0 0
68 1 4 1 15.764121297445504 34.10691182413156 25.182249718839 0 0 0
69 1 1 0 16.291685218719216 34.44984885691319 24.492913376839102 0 0 0
67 1 1 0 16.081005490222 34.75363626344719 25.8084050475073 0 0 0
87 1 2 0 12.382604273990806 33.716812727510394 26.859366236951832 0 0 0
80 1 3 -1 12.5702957190068 32.72477441823276 25.22795774360232 0 0 0
47 1 4 1 10.63183999296865 29.660286161610962 24.564945095945856 0 0 0
95 1 4 1 12.648713055082071 29.12422058665281 26.047877250683506 0 0 0
77 1 4 1 13.063478263286088 33.071643388972944 26.20423537258498 0 0 0
76 1 1 0 13.778697141800953 33.41291441633398 26.89727277480531 0 0 0
78 1 2 0 13.723836793818107 33.67735585817913 25.779329593104315 0 0 0
92 1 2 0 13.35153712901731 30.93385392148036 26.811452532719798 0 0 0
46 1 4 1 10.426149990820111 30.235201295990397 23.77847616154378 0 0 0
93 1 2 0 13.914725250277678 30.2781245017834 26.275456681731356 0 0 0
94 1 4 1 13.454806367585784 29.471276683556628 26.454333986269443 0 0 0
79 1 3 -1 13.514899031095196 33.037935158525286 25.10300231744182 0 0 0
75 1 1 0 14.488270328542962 32.75371430490114 27.270072105663772 0 0 0
64 1 3 -1 14.51179744146362 0.036141654610101784 26.618394993824477 0 1 0
48 1 3 -1 11.268026819486968 30.443223647755204 24.493341044837056 0 0 0
52 1 1 0 13.854990339986983 31.518844213555667 24.706280208061695 0 0 0
61 1 3 -1 15.02557317244347 32.60115118112378 25.626380484716595 0 0 0
62 1 4 1 14.575894224745396 33.265535374685584 26.097731555077175 0 0 0
66 1 4 1 15.5803464810344 34.908760291430326 26.590631290844158 0 0 0
65 1 4 1 15.087764667029118 0.04449536234670839 27.424387493579683 0 1 0
55 1 1 0 14.152648723492465 33.227927344024444 23.99562085863033 0 0 0
56 1 4 1 13.828423629720655 33.97387102188859 23.49519320688551 0 0 0
53 1 4 1 14.349945762715661 32.36072827558839 24.772027829218697 0 0 0
54 1 4 1 14.942318089449033 32.717320124132996 24.12638964353529 0 0 0
57 1 2 0 14.420301509090141 33.75988860030362 22.808940615570684 0 0 0
60 1 3 -1 14.682948806330781 33.34471644553577 25.002378541830463 0 0 0
59 1 3 -1 15.07760368319843 33.97477153862273 24.346207739410183 0 0 0
58 1 1 0 15.058811277484383 33.45466587412903 23.541909756531496 0 0 0
51 1 2 0 12.899383576242643 31.686067741718336 24.932171637774772 0 0 0
49 1 2 0 12.13774428722059 30.876528920535304 24.4562876949683 0 0 0
50 1 4 1 12.21208796949295 31.233021298073822 25.428602726303303 0 0 0
63 1 1 0 14.658293819630542 34.03575530426567 26.67519121170137 0 0 0
88 1 4 1 12.084110332693127 32.935475267895676 27.268646289620722 0 0 0
89 1 1 0 11.905861300549978 31.974026143358188 27.51309802300256 0 0 0
91 1 3 -1 12.940486208193287 31.3139292896697 27.60948953399089 0 0 0
90 1 3 -1 12.428823829004948 31.55427813514785 26.818204812144177 0 0 0
98 1 3 -1 13.048044988711595 30.28081959926987 24.245182325917796 0 0 0
97 1 1 0 13.139359771298533 30.321553432902796 25.164450474777848 0 0 0
21 1 2 0 11.30766914967055 33.157024889043754 28.085430946929367 0 0 0
4 1 1 0 10.621364484301697 32.23909585955045 31.116139711539038 0 0 0
5 1 3 -1 9.76452354709183 31.834063994652027 31.095250700067936 0 0 0
12 1 2 0 9.326670087687358 34.05117035779687 30.354868041181597 0 0 0
9 1 3 -1 9.205274441338327 34.57266345041102 31.271817139820847 0 0 0
10 1 1 0 10.013316287230646 0.04300216851292355 30.95465056322175 0 1 0
11 1 2 0 10.31053365660362 34.27081189640047 30.538195726298042 0 0 0
7 1 3 -1 8.51325795877866 32.9051828035197 31.0141696504127 0 0 0
8 1 3 -1 8.889398284017746 33.667050496365675 31.520571400517643 0 0 0
6 1 1 0 9.296515886906834 32.553096222485536 30.573667958516 0 0 0
17 1 1 0 11.38449613028987 34.24191884100594 29.078692641814143 0 0 0
18 1 1 0 11.154109985660122 34.809313333050824 28.339030545299103 0 0 0
20 1 4 1 11.330971190636768 33.97821716634942 27.54508166590823 0 0 0
19 1 3 -1 10.962335434909752 34.840439929139585 27.394939021728955 0 0 0

Velocities

34 -1.1822055742881428 2.3200655186719352 1.125241410807531
40 -1.666197408867193 -0.2002369135017786 -0.8418578676353045
41 -0.13760630733309387 -1.334470193956911 1.1820904891406205
39 0.6837265139990633 1.334623855849918 -0.8499734214032915
33 0.6805999451694624 0.07826822526472291 0.06668214494359574
36 -0.39032160693199275 1.5609278149147487 0.11844401112970561
37 1.0685500266574257 -1.0207083136697246 -0.13129313073253435
70 1.020957367817365 1.829522553462148 1.7526662030064646
35 1.245128536850567 0.6334681644949115 1.8030068961066357
71 0.20183290778827795 -0.6334781606757677 0.040902464111012324
72 0.3828965356306867 0.09523201296589535 -0.4143077013803111
73 -0.7734865614573084 0.6887882993320975 -0.8245381262719896
96 -0.3679535703690036 -0.27034188060977166 -1.665218936929214
30 1.3030270198192466 -0.3049696765431024 0.7744782203757404
31 0.6616963707348903 -1.1289034051636553 -0.8405858417810901
29 -0.9515107437504291 -0.7313742338114527 -0.357936237068616
82 -1.0025016897420411 -0.6122177616984004 -0.23548778895323313
81 -0.13745789757141896 -0.31137781809215986 0.4206798112958624
32 0.07077868337945781 0.8453204292500673 1.2402787044124266
28 0.16331017210758628 0.07819194612512524 -0.31537946980806
1 -0.3611275776166513 0.8270396668898584 0.47954521495293073
2 -0.2672624687141025 1.1210225217070595 0.7472537032447788
3 1.2882750047614022 0.3378813082979286 1.5057288232545842
14 -0.3435167387965164 0.7768768697525831 0.10193820115696434
13 0.18333770492407675 -0.20612207579667172 0.6705456209827837
15 0.09192831666982348 -1.4275363148597615 1.373526343579205
26 -1.0105232781807083 1.2598441527038922 0.8783104095884108
45 -0.3811542308018951 -1.9855078521495082 0.9187983188504616
27 1.8773891474018252 -0.24819704297688291 0.5184608752757501
42 -0.5063260881039937 0.4548960676985347 -1.5599962072048368
25 0.04249771581647666 -1.9393183292207006 -1.9002592416765618
43 0.016891022348595536 0.6289053590386653 -0.44260266644462426
16 -0.15213119167232475 0.49792681519134313 -0.7952385331743862
23 -1.1736279634575284 0.1619598933598478 0.45457663455667
24 0.0019265370474510306 -0.28835461781536104 1.5509936861376399
83 -0.3458883952123134 -0.42233063147427263 -1.0863927411204561
22 0.4089470671710262 -0.1575399561196073 0.7088136795300962
44 -0.1702631306617497 -0.5244949159512252 0.3825596238894871
86 -0.31710860761120246 0.35639793475693093 1.0777093520449774
84 -0.11992043813704051 1.1149766018020053 -0.6072459888493695
85 -1.2893554929558069 0.38790526700574585 0.031230202922139516
100 1.4221752024780954 1.4659531107282249 -0.8556287381077858
99 -1.572043381121321 0.561157622585507 1.0392802757753816
38 -3.0580203258455643 0.42569390203927326 0.6808958118039449
74 -0.2889301118667232 -1.2036664695502601 0.3686015051632293
68 0.722713774770061 -0.19887024901214378 -0.07869718053854144
69 0.6134262926197916 -0.23170404627627772 1.8949053328780128
67 0.6762200198381281 -1.9598692602548184 -0.493288089800196
87 -0.5942105099986673 0.4541673362246372 1.0222001814823043
80 -1.1659544640704935 -0.015001292990384938 1.2620164968733634
47 -0.4536602428425773 -0.3582103710483577 0.0321148659909944
95 2.3069395315305137 -1.7656088658264892 0.03847049117194329
77 0.17183462340928005 -1.0221984776327195 -1.267693734527822
76 0.22159216808338394 -1.8359815717358718 -0.49456907611782686
78 1.865236242423215 -0.6037952840197207 -2.183665979489612
92 -0.22229302650236352 2.6361981441812308 0.8594151608077707
46 -0.5325128838609275 0.6916680646013021 -0.6543387400445551
93 0.828852140439199 -1.3962264377066325 0.7769947811254185
94 0.11429939398013138 -2.627850709345246 0.2692880462760256
79 -1.1099374409732694 1.1341892154694244 1.3228087574687897
75 0.9030201295121325 2.042803509205039 -1.0935576267489784
64 -0.695752690086635 -0.07416446035199317 -0.26133423075048673
48 0.209229183168048 0.9468209601336068 0.062122424983919115
52 -1.1890715035333848 2.1296769065096313 -0.002900680408940557
61 -0.4324440224690366 1.1515395944959401 0.0539055961727347
62 -1.7482835951191158 0.8491010456954956 -0.16230940250628087
66 0.0986814496649838 -1.0418533310891525 0.18124247883381847
65 -0.04642107813891391 -0.9587186410579461 -0.8546585896147018
55 0.45779158929167874 0.6707617898757036 -0.6209906571903026
56 -0.2779286646914477 -0.6071252739829618 0.3631967456919667
53 0.2557527051389491 1.962492126568962 -1.1316009762406594
54 0.1872934031021257 -0.32728968657722307 0.7168843836642256
57 1.3254180565998273 -1.31537271062506 -0.8501944675517784
60 0.02904073511950119 -1.0923655033028568 -0.39411139360412856
59 0.5610325954904295 0.2317558389171915 -1.1031977314824049
58 1.558603993877534 1.319636814413641 0.4798226795713006
51 1.0983538990849855 -1.0192527247997267 0.8514032953757549
49 -0.468368232154982 -2.240912870431135 0.20860507212875823
50 2.3581382278772716 0.9084858576337649 -1.928956567689328
63 -0.6818831252685686 0.060439376777721314 -0.366573159854476
88 0.6575505220021939 0.7767407917001692 -1.2420622641845993
89 0.09803731924115562 -1.6642800739918275 0.24245807030311378
91 -1.0588138587810796 -2.2093275286651854 0.6353127727478712
90 -0.6278237557824318 -0.7110437374927293 0.017533857746286474
98 0.598459962909382 0.3911640639060733 -0.7041203744224954
97 -0.24421729544746115 0.7490508181315352 0.9740973915076029
21 -0.9971268195530115 0.4900900224090606 -0.6406484006698991
4 -1.4363636518095966 1.526474901024616 -0.6773920076806242
5 0.283611992527752 1.6345793369388921 -0.770789775239529
12 -1.3165892467630684 0.03518496021318733 0.8091030023419763
9 0.27456839309326614 0.4700945716806559 -0.5191978200860239
10 1.4076878359855172 -0.1077452155466076 -1.1321959218766906
11 0.37731138906906847 -0.7472184143972755 -0.2479030801555904
7 -1.1753024615655756 -0.15237382862718687 0.4542288551157566
8 0.16485343015811565 0.06673057858518817 0.1770882674467238
6 1.661914154236982 -1.872799587082957 -0.3561606174880492
17 -0.49467476471087657 0.715956540160911 -0.2830479038609201
18 -1.0825381154992517 0.15718239646151455 0.36034586163709736
20 0.9590937818311003 -1.0597531210273046 -1.6283274569603816
19 0.15618149604029485 0.12222836273070074 -0.21037696205506867

Bonds

1 1 34 35
2 1 40 41
3 1 41 42
4 1 39 40
5 1 33 34
6 1 36 37
7 1 37 38
8 1 70 71
9 1 35 36
10 1 71 72
11 1 72 73
12 1 73 74
13 1 96 97
14 1 30 31
15 1 31 32
16 1 29 30
17 1 82 83
18 1 81 82
19 1 32 33
20 1 28 29
21 1 1 2
22 1 2 3
23 1 3 4
24 1 14 15
25 1 13 14
26 1 15 16
27 1 26 27
28 1 45 46
29 1 27 28
30 1 42 43
31 1 25 26
32 1 43 44
33 1 16 17
34 1 23 24
35 1 24 25
36 1 83 84
37 1 22 23
38 1 44 45
39 1 86 87
40 1 84 85
41 1 85 86
42 1 99 100
43 1 38 39
44 1 74 75
45 1 68 69
46 1 69 70
47 1 67 68
48 1 87 88
49 1 80 81
50 1 47 48
51 1 95 96
52 1 77 78
53 1 76 77
54 1 78 79
55 1 92 93
56 1 46 47
57 1 93 94
58 1 94 95
59 1 79 80
60 1 75 76
61 1 64 65
62 1 48 49
63 1 52 53
64 1 61 62
65 1 62 63
66 1 66 67
67 1 65 66
68 1 55 56
69 1 56 57
70 1 53 54
71 1 54 55
72 1 57 58
73 1 60 61
74 1 59 60
75 1 58 59
76 1 51 52
77 1 49 50
78 1 50 51
79 1 63 64
80 1 88 89
81 1 89 90
82 1 91 92
83 1 90 91
84 1 98 99
85 1 97 98
86 1 21 22
87 1 4 5
88 1 5 6
89 1 12 13
90 1 9 10
91 1 10 11
92 1 11 12
93 1 7 8
94 1 8 9
95 1 6 7
96 1 17 18
97 1 18 19
98 1 20 21
99 1 19 20
