LAMMPS (23 Jun 2022 - Update 1)
OMP_NUM_THREADS environment is not set. Defaulting to 1 thread. (src/comm.cpp:98)
  using 1 OpenMP thread(s) per MPI task


variable        runtime equal 1000000
variable		subsample_rate equal 1000

variable		outputfile_created string '3_created.data'
variable		outputfile_relaxed string '5_relaxed.data'
variable		outputfile_selfasb string '6_a_self_assemble.lammpstrj'
variable		outputfile_trajlin string '6_b_trajlin.data'
variable		outputfile_assembled string '7_assembled.data'

units           lj
atom_style      full
dimension       3
boundary        p p p
timestep        0.005

read_data       ${outputfile_created}
read_data       3_created.data
Reading data file ...
  orthogonal box = (0 0 0) to (35 35 35)
  1 by 1 by 1 MPI processor grid
  reading atoms ...
  100 atoms
  reading velocities ...
  100 velocities
  scanning bonds ...
  1 = max bonds/atom
  reading bonds ...
  99 bonds
Finding 1-2 1-3 1-4 neighbors ...
  special bond factors lj:    0        0        0       
  special bond factors coul:  0        0        0       
     2 = max # of 1-2 neighbors
     2 = max # of 1-3 neighbors
     4 = max # of 1-4 neighbors
     6 = max # of special neighbors
  special bonds CPU = 0.000 seconds
  read_data CPU = 0.005 seconds

bond_style      fene
bond_coeff      * 30.0 1.5 1.0 1.0
special_bonds   fene
Finding 1-2 1-3 1-4 neighbors ...
  special bond factors lj:    0        1        1       
  special bond factors coul:  0        1        1       
     2 = max # of 1-2 neighbors
     6 = max # of special neighbors
  special bonds CPU = 0.000 seconds

variable        Temp equal 1.0
variable        velSeed equal 926458

velocity        all create ${Temp} ${velSeed}
velocity        all create 1 ${velSeed}
velocity        all create 1 926458

### Output
thermo_style    custom step temp density press etotal pe ke epair spcpu
thermo          1000

###########################################################################
# Soft relaxation (to remove overlaps of particles)
######################################################################

pair_style      soft 1.0
pair_coeff      * * 0.0
variable        prefactor equal ramp(0,300)
fix             rampSoft all adapt 1 pair soft a * * v_prefactor

minimize        0.0 1.0e-8 1000 100000
WARNING: Using 'neigh_modify every 1 delay 0 check yes' setting during minimization (src/min.cpp:187)
Generated 0 of 6 mixed pair_coeff terms from geometric mixing rule
Neighbor list info ...
  update every 1 steps, delay 0 steps, check yes
  max neighbors/atom: 2000, page size: 100000
  master list distance cutoff = 1.3
  ghost atom cutoff = 1.3
  binsize = 0.65, bins = 54 54 54
  1 neighbor lists, perpetual/occasional/extra = 1 0 0
  (1) pair soft, perpetual
      attributes: half, newton on
      pair build: half/bin/newton
      stencil: half/bin/3d
      bin: standard
WARNING: Communication cutoff 1.3 is shorter than a bond length based estimate of 1.7550000000000001. This may lead to errors. (src/comm.cpp:727)
Per MPI rank memory allocation (min/avg/max) = 8.346 | 8.346 | 8.346 Mbytes
   Step          Temp         Density         Press          TotEng         PotEng         KinEng         E_pair         S/CPU     
         0   1              0.0023323615  -0.0039617958   21.524174      20.039174      1.485          0              0            
       362   1              0.0023323615   0.0023090379   21.485548      20.000548      1.485          0              71397.465    
Loop time of 0.00507265 on 1 procs for 362 steps with 100 atoms

99.2% CPU use with 1 MPI tasks x 1 OpenMP threads

Minimization stats:
  Stopping criterion = force tolerance
  Energy initial, next-to-last, final = 
      20.0391741078675   20.0005480767337   20.0005480767337
  Force two-norm initial, final = 11.878422 7.9509778e-09
  Force max component initial, final = 6.6117807 1.3572772e-09
  Final line search alpha, max atom move = 1 1.3572772e-09
  Iterations, force evaluations = 362 738

MPI task timing breakdown:
Section |  min time  |  avg time  |  max time  |%varavg| %total
---------------------------------------------------------------
Pair    | 0.00021414 | 0.00021414 | 0.00021414 |   0.0 |  4.22
Bond    | 0.0023207  | 0.0023207  | 0.0023207  |   0.0 | 45.75
Neigh   | 0.0013629  | 0.0013629  | 0.0013629  |   0.0 | 26.87
Comm    | 0.00018895 | 0.00018895 | 0.00018895 |   0.0 |  3.72
Output  | 0          | 0          | 0          |   0.0 |  0.00
Modify  | 0          | 0          | 0          |   0.0 |  0.00
Other   |            | 0.0009859  |            |       | 19.44

Nlocal:            100 ave         100 max         100 min
Histogram: 1 0 0 0 0 0 0 0 0 0
Nghost:             20 ave          20 max          20 min
Histogram: 1 0 0 0 0 0 0 0 0 0
Neighs:              0 ave           0 max           0 min
Histogram: 1 0 0 0 0 0 0 0 0 0

Total # of neighbors = 0
Ave neighs/atom = 0
Ave special neighs/atom = 1.98
Neighbor list builds = 17
Dangerous builds = 0

fix             nvtSoft all nvt temp ${Temp} ${Temp} 0.5
fix             nvtSoft all nvt temp 1 ${Temp} 0.5
fix             nvtSoft all nvt temp 1 1 0.5
run             100000
Generated 0 of 6 mixed pair_coeff terms from geometric mixing rule
WARNING: Communication cutoff 1.3 is shorter than a bond length based estimate of 1.7550000000000001. This may lead to errors. (src/comm.cpp:727)
Per MPI rank memory allocation (min/avg/max) = 7.221 | 7.221 | 7.221 Mbytes
   Step          Temp         Density         Press          TotEng         PotEng         KinEng         E_pair         S/CPU     
       362   1              0.0023323615   0.0023090379   21.485548      20.000548      1.485          0              0            
      1000   0.90989032     0.0023323615  -0.0021940042   21.776974      20.425787      1.3511871      0.00036425437  78902.157    
      2000   0.86546688     0.0023323615   0.0034714157   21.677128      20.39191       1.2852183      0.0025814786   77803.066    
      3000   0.98199538     0.0023323615   0.0028144228   21.866132      20.407869      1.4582631      0.0011756043   74345.822    
      4000   1.004495       0.0023323615  -0.0014058211   21.945624      20.453949      1.4916751      0.011986179    74401.186    
      5000   1.1222705      0.0023323615   0.0044495116   21.986385      20.319813      1.6665718      0.0050317639   74700.646    
      6000   1.0538243      0.0023323615   0.0023957538   21.985713      20.420784      1.564929       0.012100514    75278.633    
      7000   1.0210598      0.0023323615  -0.00038820026  21.904665      20.388391      1.5162738      0              76560.146    
      8000   0.94819751     0.0023323615   0.0024943091   21.747889      20.339816      1.4080733      0              76888.477    
      9000   0.92364502     0.0023323615   0.0020053029   21.724166      20.352554      1.3716129      1.7780894e-05  76032.82     
     10000   0.86685188     0.0023323615   0.00078277366  21.644879      20.357604      1.287275       0.0098636418   76469.647    
     11000   1.0057103      0.0023323615   0.00010113276  21.8558        20.362321      1.4934798      0.020705341    76056.802    
     12000   0.97901664     0.0023323615  -0.0026996968   21.871206      20.417366      1.4538397      0.0052928539   75809.339    
     13000   0.97718436     0.0023323615  -6.1641422e-06  21.963706      20.512587      1.4511188      0.025022446    75781.476    
     14000   1.0530014      0.0023323615  -0.0009993112   21.947994      20.384287      1.5637071      0.0020860456   74989.113    
     15000   0.99094527     0.0023323615   0.0011068478   21.895146      20.423592      1.4715537      0.0015091113   75750.018    
     16000   0.91285091     0.0023323615  -0.00025424173  21.87524       20.519657      1.3555836      0.0047853639   75738.004    
     17000   0.82806978     0.0023323615  -0.00054698156  21.701984      20.472301      1.2296836      0              75962.975    
     18000   1.043278       0.0023323615  -6.6143919e-05  22.003299      20.454031      1.5492679      0.0034319132   76606.104    
     19000   1.0879249      0.0023323615  -0.0017804642   21.998985      20.383416      1.6155685      0.015376175    75319.076    
     20000   1.1144506      0.0023323615   0.0025198298   22.190904      20.535944      1.6549592      0              76149.643    
     21000   1.0427751      0.0023323615   0.0011345349   22.099492      20.550971      1.548521       0.00040047813  76566.495    
     22000   1.0586695      0.0023323615   0.0017882747   22.05673       20.484606      1.5721242      0              76462.97     
     23000   1.0058426      0.0023323615  -0.0055245362   21.954628      20.460951      1.4936763      0.0027619031   75517.385    
     24000   0.98273442     0.0023323615   0.0015147357   21.862067      20.402707      1.4593606      0              75809.626    
     25000   0.95835343     0.0023323615   0.0017808774   21.937761      20.514606      1.4231548      0.00020839942  75517.499    
     26000   0.93993778     0.0023323615  -0.0021777292   21.884849      20.489042      1.3958076      0.0088889834   75997.047    
     27000   0.9308188      0.0023323615  -0.00011239942  21.842252      20.459986      1.3822659      0.021612409    75347.332    
     28000   1.0149581      0.0023323615   0.0041996387   21.906846      20.399633      1.5072129      0.0064059022   75852.081    
     29000   0.92841138     0.0023323615  -2.5398808e-05  21.987185      20.608494      1.3786909      0.0046112484   75777.68     
     30000   1.021043       0.0023323615   0.001589158    22.097958      20.581709      1.5162489      0.016799508    73262.768    
     31000   1.0465985      0.0023323615  -0.0021744286   22.037917      20.483718      1.5541987      0.0057879149   76092.295    
     32000   0.98907108     0.0023323615  -0.0015558606   22.044089      20.575318      1.4687705      0.009448173    75862.456    
     33000   1.0918536      0.0023323615  -0.0025643847   22.039275      20.417873      1.6214025      0              74900.768    
     34000   0.99801543     0.0023323615   0.0016279766   21.932339      20.450286      1.4820529      0.017384617    77206.723    
     35000   1.0352271      0.0023323615  -0.0052971711   22.076004      20.538692      1.5373122      0.00010473809  75779.523    
     36000   1.1141579      0.0023323615  -0.00093279925  22.222491      20.567966      1.6545245      0.00033678641  76852.952    
     37000   1.0369415      0.0023323615   0.00013065175  22.217841      20.677983      1.5398581      0.013788831    75964.36     
     38000   1.0515596      0.0023323615   0.0021717558   22.070766      20.5092        1.561566       0.0067894678   76605.459    
     39000   1.0238495      0.0023323615   0.00026414509  22.040141      20.519725      1.5204165      0.00044464649  75593.681    
     40000   1.0749111      0.0023323615  -0.0026849368   22.039327      20.443084      1.596243       0.012651334    74073.761    
     41000   0.99070886     0.0023323615  -0.0030385564   22.03241       20.561207      1.4712027      0.00092855646  77260.27     
     42000   0.95315224     0.0023323615   0.0019788197   21.965263      20.549832      1.4154311      0.020233689    75658.83     
     43000   1.0644183      0.0023323615  -0.0011168725   22.287172      20.706511      1.5806611      0.039694129    75638.829    
     44000   1.0253747      0.0023323615  -0.006676522    22.066233      20.543552      1.5226814      0              74680.134    
     45000   0.94179556     0.0023323615  -0.0047206018   21.970644      20.572077      1.3985664      0.019869988    75245.887    
     46000   1.0083495      0.0023323615  -0.0017646918   21.972114      20.474715      1.497399       0.00026040605  75246.793    
     47000   0.98767959     0.0023323615  -0.00080218158  22.091674      20.62497       1.4667042      0.024266258    74852.238    
     48000   1.1473449      0.0023323615  -0.0025885687   22.080512      20.376705      1.7038072      0.00065962995  75515.959    
     49000   1.0679312      0.0023323615   0.0017688272   21.970482      20.384604      1.5858779      0.014142422    76536.438    
     50000   0.9581935      0.0023323615   0.0014398836   21.955202      20.532284      1.4229173      0.0055011948   76118.458    
     51000   1.0215759      0.0023323615  -0.00093292688  21.934681      20.41764       1.5170402      0              75707.786    
     52000   0.98079591     0.0023323615   0.0040701936   21.977374      20.520892      1.4564819      0.0020862422   76489.452    
     53000   1.0090927      0.0023323615   0.0013324753   22.095438      20.596935      1.4985027      0              75892.803    
     54000   0.97519627     0.0023323615   0.0013260734   22.070151      20.621984      1.4481665      0.026885444    76884.918    
     55000   1.1805087      0.0023323615  -0.001586238    22.424088      20.671033      1.7530554      0.024690954    76417.773    
     56000   0.98387121     0.0023323615   0.0037155145   22.104425      20.643376      1.4610487      0.01435493     76079.994    
     57000   1.0723812      0.0023323615  -0.0037916262   22.122726      20.53024       1.592486       0.013635549    76426.843    
     58000   1.0152349      0.0023323615   0.00021908047  22.082827      20.575203      1.5076238      0.00077375639  76168.244    
     59000   1.1424502      0.0023323615  -0.0052108657   22.30072       20.604182      1.6965385      0.013308184    77167.27     
     60000   1.0359703      0.0023323615  -0.00097887545  22.188218      20.649802      1.538416       0.00011346294  75485.291    
     61000   1.1646839      0.0023323615  -0.002085017    22.239945      20.51039       1.7295556      0.012918477    77751.066    
     62000   1.101836       0.0023323615   0.0010338878   22.171386      20.53516       1.6362265      0.001396566    76615.8      
     63000   0.96616435     0.0023323615   0.00097550571  21.903821      20.469067      1.4347541      0.013027663    77839.53     
     64000   1.0068907      0.0023323615  -0.0020278726   22.061652      20.566419      1.4952327      0.013750276    76309.985    
     65000   0.98723233     0.0023323615   0.0022441476   22.031073      20.565033      1.46604        0.0066686189   76700.939    
     66000   1.0273881      0.0023323615  -0.0003515278   22.183579      20.657908      1.5256713      0              74874.864    
     67000   0.96528212     0.0023323615  -0.00014822656  21.9396        20.506156      1.4334439      0.010365557    76964.721    
     68000   1.069702       0.0023323615   9.4754668e-05  22.081119      20.492611      1.5885075      0.00049153926  74072.439    
     69000   1.1229502      0.0023323615   0.0011504079   22.200329      20.532748      1.6675811      0.0068454249   76382.098    
     70000   1.0062775      0.0023323615  -0.00085311964  22.094021      20.599699      1.4943221      0.013222355    75406.427    
     71000   1.0906935      0.0023323615   0.00015260357  22.145362      20.525682      1.6196798      0.018338513    76083.993    
     72000   1.010401       0.0023323615  -6.0487182e-06  22.154105      20.653659      1.5004455      0.0013793953   74774.35     
     73000   1.1177599      0.0023323615  -0.0034084797   22.254435      20.594562      1.6598735      0.00011231735  77656.459    
     74000   0.9768019      0.0023323615   0.00016143893  22.07312       20.622569      1.4505508      0.0084515956   75706.348    
     75000   1.1360996      0.0023323615   0.002159116    22.161595      20.474487      1.6871079      0.0089909162   76292.31     
     76000   0.97379329     0.0023323615  -0.00068458621  21.988928      20.542845      1.446083       0              75489.742    
     77000   0.94876793     0.0023323615  -0.0016073976   21.923496      20.514575      1.4089204      0.017745108    75614.304    
     78000   0.83947996     0.0023323615  -0.00062768559  21.726727      20.480099      1.2466277      0.0054510099   76102.499    
     79000   1.0090614      0.0023323615  -0.00080262643  22.068192      20.569736      1.4984562      0.00023011166  76825.863    
     80000   1.1217643      0.0023323615  -0.0038177864   22.367902      20.702082      1.66582        0.032902439    76095.248    
     81000   1.0240158      0.0023323615   0.00023547123  22.031597      20.510933      1.5206635      0.0068767308   75741.796    
     82000   1.003236       0.0023323615  -0.0022802982   21.894199      20.404393      1.4898055      0.019136282    74687.68     
     83000   1.0554159      0.0023323615   0.004011718    22.104562      20.537269      1.5672927      0.0080869707   74517.497    
     84000   0.83527346     0.0023323615  -0.0034122221   21.874648      20.634267      1.2403811      0.0030083664   75692.916    
     85000   1.036002       0.0023323615   0.0013573923   21.962923      20.42446       1.5384629      0.015709144    76580.591    
     86000   0.9432002      0.0023323615  -0.0032183248   21.913588      20.512936      1.4006523      0.013730309    76193.594    
     87000   0.95566008     0.0023323615  -0.00049614223  21.91653       20.497375      1.4191552      0.0035862035   75517.162    
     88000   0.93373351     0.0023323615  -0.00097093893  21.870485      20.483891      1.3865943      0.0018212145   75185.692    
     89000   0.9684944      0.0023323615  -0.00047342045  21.973429      20.535215      1.4382142      0.00087524744  75432.007    
     90000   0.98293324     0.0023323615  -0.0032204602   22.050919      20.591263      1.4596559      0.015353933    76568.963    
     91000   1.0832827      0.0023323615   0.0048517083   22.11977       20.511095      1.6086749      0.0052867789   77594.394    
     92000   0.85899662     0.0023323615  -0.0013049519   21.765697      20.490087      1.27561        0.0024124001   76565.258    
     93000   0.96176266     0.0023323615  -4.4223672e-05  21.874222      20.446004      1.4282176      0.0045653365   77401.789    
     94000   0.96019503     0.0023323615   0.00024459347  21.944954      20.519064      1.4258896      3.8053462e-05  76618.565    
     95000   0.94702149     0.0023323615  -0.0033658915   21.86315       20.456823      1.4063269      0              77204.332    
     96000   0.91119348     0.0023323615  -0.0013197298   21.825018      20.471896      1.3531223      0.00043282989  75931.078    
     97000   1.0016687      0.0023323615  -0.0019514304   22.013024      20.525546      1.487478       0.0048369955   75385.236    
     98000   1.02143        0.0023323615  -0.0057874974   22.177965      20.661142      1.5168235      0              74105.22     
     99000   1.032786       0.0023323615   0.0018228259   21.975336      20.441649      1.5336871      7.1595851e-05  77447.786    
    100000   1.0594928      0.0023323615   0.0036169719   22.011024      20.437677      1.5733468      0.00032948157  75784.87     
    100362   1.1904942      0.0023323615  -0.00089755607  22.316856      20.548972      1.7678839      0.00063845255  75379.197    
Loop time of 1.31659 on 1 procs for 100000 steps with 100 atoms

Performance: 32812033.742 tau/day, 75953.782 timesteps/s
99.2% CPU use with 1 MPI tasks x 1 OpenMP threads

MPI task timing breakdown:
Section |  min time  |  avg time  |  max time  |%varavg| %total
---------------------------------------------------------------
Pair    | 0.04917    | 0.04917    | 0.04917    |   0.0 |  3.73
Bond    | 0.12582    | 0.12582    | 0.12582    |   0.0 |  9.56
Neigh   | 0.80109    | 0.80109    | 0.80109    |   0.0 | 60.85
Comm    | 0.05458    | 0.05458    | 0.05458    |   0.0 |  4.15
Output  | 0.0010659  | 0.0010659  | 0.0010659  |   0.0 |  0.08
Modify  | 0.25176    | 0.25176    | 0.25176    |   0.0 | 19.12
Other   |            | 0.03311    |            |       |  2.51

Nlocal:            100 ave         100 max         100 min
Histogram: 1 0 0 0 0 0 0 0 0 0
Nghost:             60 ave          60 max          60 min
Histogram: 1 0 0 0 0 0 0 0 0 0
Neighs:             36 ave          36 max          36 min
Histogram: 1 0 0 0 0 0 0 0 0 0

Total # of neighbors = 36
Ave neighs/atom = 0.36
Ave special neighs/atom = 1.98
Neighbor list builds = 9821
Dangerous builds = 8265
unfix           nvtSoft
unfix           rampSoft
reset_timestep  0

write_data      ${outputfile_relaxed}
write_data      5_relaxed.data
System init for write_data ...
Generated 0 of 6 mixed pair_coeff terms from geometric mixing rule
WARNING: Communication cutoff 1.3 is shorter than a bond length based estimate of 1.7550000000000001. This may lead to errors. (src/comm.cpp:727)
WARNING: Not all mixed pair coeffs generated from mixing. Use write_data with 'pair ij' option to store all pair coeffs. (src/write_data.cpp:309)

###########################################################################
# Full LJ with Coulomb
######################################################################

# Cutoffs and parameters:
# - Values: Marcel Verkade's Bachelor Thesis
# - Mapping to atom groups: Patrick Onck's paper
# - 1: aliphatic, 2: aromatic, 3: anion, 4: cation
# pair_style	lj/cut/coul/cut <lj_cut_global> <coul_cut_global>
# pair_coeff	<type_1>  <type_2>  <eps>  <sigma>  <r_cut_lj>  <r_cut_coul>

# Problem: Onck's model is much more complex, and Marcel has no sigma reported
# Using sigma=1 randomly

variable		glob_ljeps equal 1.0
variable		glob_ljsig 	equal 1.0
variable		glob_coulcut equal 10.0
variable		att_ljcut equal 2.50
variable		rep_ljcut equal 1.12

pair_style		lj/cut/coul/cut 						${att_ljcut} 	${glob_coulcut}
pair_style		lj/cut/coul/cut 						2.5 	${glob_coulcut}
pair_style		lj/cut/coul/cut 						2.5 	10
pair_coeff		1 1 	${glob_ljeps} 	${glob_ljsig}	${att_ljcut} 	${glob_coulcut}
pair_coeff		1 1 	1 	${glob_ljsig}	${att_ljcut} 	${glob_coulcut}
pair_coeff		1 1 	1 	1	${att_ljcut} 	${glob_coulcut}
pair_coeff		1 1 	1 	1	2.5 	${glob_coulcut}
pair_coeff		1 1 	1 	1	2.5 	10
pair_coeff		1 2 	${glob_ljeps} 	${glob_ljsig}	${att_ljcut} 	${glob_coulcut}
pair_coeff		1 2 	1 	${glob_ljsig}	${att_ljcut} 	${glob_coulcut}
pair_coeff		1 2 	1 	1	${att_ljcut} 	${glob_coulcut}
pair_coeff		1 2 	1 	1	2.5 	${glob_coulcut}
pair_coeff		1 2 	1 	1	2.5 	10
pair_coeff		1 3 	${glob_ljeps} 	${glob_ljsig}	${rep_ljcut} 	${glob_coulcut}
pair_coeff		1 3 	1 	${glob_ljsig}	${rep_ljcut} 	${glob_coulcut}
pair_coeff		1 3 	1 	1	${rep_ljcut} 	${glob_coulcut}
pair_coeff		1 3 	1 	1	1.12 	${glob_coulcut}
pair_coeff		1 3 	1 	1	1.12 	10
pair_coeff		1 4 	${glob_ljeps} 	${glob_ljsig}	${rep_ljcut} 	${glob_coulcut}
pair_coeff		1 4 	1 	${glob_ljsig}	${rep_ljcut} 	${glob_coulcut}
pair_coeff		1 4 	1 	1	${rep_ljcut} 	${glob_coulcut}
pair_coeff		1 4 	1 	1	1.12 	${glob_coulcut}
pair_coeff		1 4 	1 	1	1.12 	10
pair_coeff		2 2 	${glob_ljeps} 	${glob_ljsig}	${att_ljcut} 	${glob_coulcut}
pair_coeff		2 2 	1 	${glob_ljsig}	${att_ljcut} 	${glob_coulcut}
pair_coeff		2 2 	1 	1	${att_ljcut} 	${glob_coulcut}
pair_coeff		2 2 	1 	1	2.5 	${glob_coulcut}
pair_coeff		2 2 	1 	1	2.5 	10
pair_coeff		2 3 	${glob_ljeps} 	${glob_ljsig}	${rep_ljcut} 	${glob_coulcut}
pair_coeff		2 3 	1 	${glob_ljsig}	${rep_ljcut} 	${glob_coulcut}
pair_coeff		2 3 	1 	1	${rep_ljcut} 	${glob_coulcut}
pair_coeff		2 3 	1 	1	1.12 	${glob_coulcut}
pair_coeff		2 3 	1 	1	1.12 	10
pair_coeff		2 4 	${glob_ljeps} 	${glob_ljsig}	${att_ljcut} 	${glob_coulcut}
pair_coeff		2 4 	1 	${glob_ljsig}	${att_ljcut} 	${glob_coulcut}
pair_coeff		2 4 	1 	1	${att_ljcut} 	${glob_coulcut}
pair_coeff		2 4 	1 	1	2.5 	${glob_coulcut}
pair_coeff		2 4 	1 	1	2.5 	10
pair_coeff		3 3 	${glob_ljeps} 	${glob_ljsig}	${rep_ljcut} 	${glob_coulcut}
pair_coeff		3 3 	1 	${glob_ljsig}	${rep_ljcut} 	${glob_coulcut}
pair_coeff		3 3 	1 	1	${rep_ljcut} 	${glob_coulcut}
pair_coeff		3 3 	1 	1	1.12 	${glob_coulcut}
pair_coeff		3 3 	1 	1	1.12 	10
pair_coeff		3 4 	${glob_ljeps} 	${glob_ljsig}	${att_ljcut} 	${glob_coulcut}
pair_coeff		3 4 	1 	${glob_ljsig}	${att_ljcut} 	${glob_coulcut}
pair_coeff		3 4 	1 	1	${att_ljcut} 	${glob_coulcut}
pair_coeff		3 4 	1 	1	2.5 	${glob_coulcut}
pair_coeff		3 4 	1 	1	2.5 	10
pair_coeff		4 4 	${glob_ljeps} 	${glob_ljsig}	${rep_ljcut} 	${glob_coulcut}
pair_coeff		4 4 	1 	${glob_ljsig}	${rep_ljcut} 	${glob_coulcut}
pair_coeff		4 4 	1 	1	${rep_ljcut} 	${glob_coulcut}
pair_coeff		4 4 	1 	1	1.12 	${glob_coulcut}
pair_coeff		4 4 	1 	1	1.12 	10


fix             noDriftRot 	all momentum 10 linear 1 1 1 angular
fix             nvt1 		all nvt temp ${Temp} ${Temp} 0.5
fix             nvt1 		all nvt temp 1 ${Temp} 0.5
fix             nvt1 		all nvt temp 1 1 0.5

# dump          assemble 	all custom 1000 				${outputfile_selfasb} id type xu yu zu vx vy vz
dump            lindump 	all custom ${subsample_rate} 	${outputfile_trajlin} id type xu yu zu vx vy vz
dump            lindump 	all custom 1000 	${outputfile_trajlin} id type xu yu zu vx vy vz
dump            lindump 	all custom 1000 	6_b_trajlin.data id type xu yu zu vx vy vz

run             ${runtime}
run             1000000
Generated 0 of 6 mixed pair_coeff terms from geometric mixing rule
Neighbor list info ...
  update every 1 steps, delay 10 steps, check yes
  max neighbors/atom: 2000, page size: 100000
  master list distance cutoff = 10.3
  ghost atom cutoff = 10.3
  binsize = 5.15, bins = 7 7 7
  1 neighbor lists, perpetual/occasional/extra = 1 0 0
  (1) pair lj/cut/coul/cut, perpetual
      attributes: half, newton on
      pair build: half/bin/newton
      stencil: half/bin/3d
      bin: standard
Per MPI rank memory allocation (min/avg/max) = 7.712 | 7.712 | 7.712 Mbytes
   Step          Temp         Density         Press          TotEng         PotEng         KinEng         E_pair         S/CPU     
         0   1.1904942      0.0023323615  -0.0013175846   21.971206      20.203322      1.7678839     -0.3450118      0            
      1000   0.93260293     0.0023323615  -0.00019295587  21.115279      19.730364      1.3849153     -0.69193533     33345.571    
      2000   0.9792252      0.0023323615   0.00091915551  21.027827      19.573677      1.4541494     -0.8354824      29724.677    
      3000   1.0665753      0.0023323615   0.0033844142   21.249138      19.665274      1.5838643     -0.75105897     25052.185    
      4000   0.8846461      0.0023323615   0.0018040712   20.519926      19.206227      1.3136995     -1.2277875      19712.511    
      5000   0.92795616     0.0023323615  -0.0064056154   20.834337      19.456322      1.3780149     -1.1498061      18307.549    
      6000   0.95110206     0.0023323615  -0.0017167719   20.974802      19.562416      1.4123866     -1.0256737      18852.795    
      7000   1.0945104      0.0023323615   0.0020969628   20.932617      19.307269      1.6253479     -1.1707037      18761.23     
      8000   0.98092837     0.0023323615   0.0015883605   20.600332      19.143653      1.4566786     -1.4111737      18620.227    
      9000   0.94385113     0.0023323615   0.0015186821   20.786867      19.385248      1.4016189     -1.236552       18494.28     
     10000   0.89906274     0.0023323615   0.00074714186  20.973509      19.638401      1.3351082     -0.96537407     18657.791    
     11000   1.0038705      0.0023323615   0.00080532934  20.863688      19.372941      1.4907477     -1.1201002      19070.206    
     12000   0.94544528     0.0023323615  -0.0048829488   20.731266      19.327279      1.4039862     -1.1462649      18977.254    
     13000   0.86272192     0.0023323615  -0.0011695769   20.691771      19.410629      1.2811421     -1.1547116      18672.786    
     14000   0.99251437     0.0023323615   0.0036936192   20.769669      19.295785      1.4738838     -1.2222553      18628.328    
     15000   0.89534415     0.0023323615   0.0031927166   20.574777      19.245191      1.3295861     -1.2536307      18686.381    
     16000   1.1461981      0.0023323615   0.0014382901   21.209975      19.507871      1.7021042     -1.0355931      18707.584    
     17000   0.99874896     0.0023323615  -0.0040721295   20.779863      19.296721      1.4831422     -1.178          18617.393    
     18000   0.96659556     0.0023323615  -0.0025142244   20.315262      18.879868      1.4353944     -1.5698629      18591.867    
     19000   1.0438739      0.0023323615   0.0015846379   20.870097      19.319945      1.5501528     -1.1044961      18750.871    
     20000   1.1491178      0.0023323615  -0.0024248773   21.607919      19.901479      1.70644       -0.89117201     18794.802    
     21000   1.0099485      0.0023323615   0.00032758491  20.726923      19.227149      1.4997735     -1.2818447      18913.712    
     22000   0.80254984     0.0023323615   0.00034894295  20.438256      19.246469      1.1917865     -1.2288718      18649.933    
     23000   1.0397316      0.0023323615   0.0011087235   21.008372      19.46437       1.5440015     -1.3172024      18489.672    
     24000   0.96200053     0.0023323615  -0.0017074034   20.702062      19.273491      1.4285708     -1.1989166      18543.91     
     25000   1.0891546      0.0023323615  -0.0023739055   20.950141      19.332747      1.6173945     -1.2243597      18523.334    
     26000   1.1637662      0.0023323615   0.00015433337  20.849992      19.121799      1.7281928     -1.4124293      18462.097    
     27000   1.0309046      0.0023323615   0.0051367146   20.738135      19.207241      1.5308933     -1.4105149      18467.231    
     28000   0.86384326     0.0023323615   0.00097305847  20.508246      19.225439      1.2828072     -1.259812       18585.238    
     29000   1.0720203      0.0023323615   0.001084221    20.75915       19.1672        1.5919501     -1.3853867      18444.37     
     30000   1.0347562      0.0023323615  -0.00040004053  20.913709      19.377096      1.5366129     -1.2150319      18645.376    
     31000   1.0676516      0.0023323615  -0.0029790669   21.242051      19.656588      1.5854627     -1.0001423      18654.726    
     32000   0.89729781     0.0023323615  -0.001890422    20.728375      19.395888      1.3324872     -1.2025419      18486.405    
     33000   1.0475351      0.0023323615   0.0053322275   21.132741      19.577152      1.5555897     -1.0077198      18484.033    
     34000   0.9718029      0.0023323615  -0.00015777252  20.905282      19.462154      1.4431273     -1.0496112      18605.559    
     35000   0.92311623     0.0023323615   0.0023974568   20.704962      19.334134      1.3708276     -1.2372129      18759.146    
     36000   1.0631323      0.0023323615   0.00092305801  20.845632      19.266881      1.5787515     -1.2033287      18537.29     
     37000   1.0021447      0.0023323615  -0.0032860909   20.837058      19.348873      1.4881849     -1.2450739      18534.516    
     38000   1.0918888      0.0023323615  -0.0043170166   21.122802      19.501347      1.6214549     -1.0057295      18761.805    
     39000   0.94647575     0.0023323615  -0.0020346915   20.911367      19.505851      1.4055165     -1.1047178      18901.993    
     40000   1.1015746      0.0023323615   0.0032207441   20.870102      19.234264      1.6358382     -1.2799523      18843.164    
     41000   0.98801554     0.0023323615  -0.0014647017   20.818149      19.350945      1.4672031     -1.098847       18797.046    
     42000   0.95461858     0.0023323615   0.00021673517  21.033051      19.615442      1.4176086     -0.96325371     18713.417    
     43000   0.8592636      0.0023323615  -0.0029001611   20.65592       19.379914      1.2760064     -1.1370852      18795.974    
     44000   1.0611791      0.0023323615  -0.0025534872   20.67237       19.096519      1.575851      -1.3334102      18540.117    
     45000   0.95729047     0.0023323615  -0.0028726736   20.784361      19.362784      1.4215763     -1.252846       18421.093    
     46000   1.0619299      0.0023323615  -0.00097582061  20.823799      19.246833      1.5769659     -1.3975769      18472.539    
     47000   1.0139909      0.0023323615  -0.0015186961   20.831137      19.325361      1.5057764     -1.2624763      18535.41     
     48000   1.0690003      0.0023323615  -0.00059908551  20.796092      19.208627      1.5874654     -1.2842395      18451.295    
     49000   0.90250472     0.0023323615   0.0044861974   20.544328      19.204109      1.3402195     -1.407722       18423.351    
     50000   1.0674562      0.0023323615   9.0047813e-05  20.864462      19.279289      1.5851724     -1.439577       18515.087    
     51000   1.0720118      0.0023323615  -0.0019749472   21.061521      19.469584      1.5919375     -1.0137342      18641.455    
     52000   1.1450027      0.0023323615   0.00036473019  20.818162      19.117833      1.7003291     -1.3334         18689.415    
     53000   0.93514998     0.0023323615   0.0011780048   20.789222      19.400525      1.3886977     -1.1454357      18790.262    
     54000   0.9946537      0.0023323615   0.0019117273   20.837118      19.360057      1.4770608     -1.0370148      18751.988    
     55000   1.0238819      0.0023323615  -0.0036280478   20.65547       19.135005      1.5204646     -1.3438239      18554.717    
     56000   0.98996486     0.0023323615  -0.0019706166   21.059037      19.588939      1.4700978     -1.0137714      18699.485    
     57000   1.0890572      0.0023323615   0.00036310879  20.987895      19.370645      1.61725       -1.1561007      18690.87     
     58000   1.0296966      0.0023323615   0.00054101707  20.785579      19.25648       1.5290994     -1.2661821      18652.951    
     59000   1.0008463      0.0023323615  -0.0007360914   20.955617      19.46936       1.4862567     -1.1751569      18700.284    
     60000   1.0022531      0.0023323615  -0.0035028402   21.052098      19.563752      1.4883459     -1.0814997      18688.474    
     61000   1.0842901      0.0023323615   0.0040314596   20.973671      19.3635        1.6101709     -1.1237924      18621.329    
     62000   0.92713254     0.0023323615  -0.00070580358  20.678207      19.301415      1.3767918     -1.252971       18736.521    
     63000   0.95641496     0.0023323615  -0.00050322414  20.837367      19.417091      1.4202762     -1.1258668      18694.501    
     64000   0.97849141     0.0023323615   0.002598618    20.702094      19.249034      1.4530597     -1.2635372      18680.474    
     65000   0.89799837     0.0023323615   0.00083783085  20.557806      19.224279      1.3335276     -1.3551373      18610.496    
     66000   0.99210976     0.0023323615   0.001708015    20.369386      18.896103      1.473283      -1.5848333      18564.946    
     67000   0.85487669     0.0023323615  -0.0039286249   20.691688      19.422196      1.2694919     -1.1781444      18618.053    
     68000   1.0274228      0.0023323615   0.00044547402  20.683168      19.157446      1.5257229     -1.3249226      18668.064    
     69000   1.3229581      0.0023323615  -0.0049948569   21.531297      19.566704      1.9645928     -1.041836       18746.195    
     70000   0.98395858     0.0023323615   0.00015724926  20.783196      19.322017      1.4611785     -1.230108       18661.356    
     71000   1.0324357      0.0023323615  -0.0034599727   20.845204      19.312037      1.5331671     -1.2945985      18531.656    
     72000   1.0652545      0.0023323615   0.0036567667   20.825236      19.243333      1.5819029     -1.2304122      18639.15     
     73000   0.86874554     0.0023323615  -0.0021367155   20.893267      19.60318       1.2900871     -1.119092       18521.491    
     74000   1.0433594      0.0023323615  -0.00095900667  20.491273      18.941884      1.5493887     -1.4636966      18532.534    
     75000   1.0120089      0.0023323615  -0.001040985    20.952463      19.44963       1.5028332     -1.0443668      18668.218    
     76000   0.99495456     0.0023323615   0.0020397665   20.609935      19.132428      1.4775075     -1.2427369      18678.583    
     77000   1.0527148      0.0023323615   0.0033878366   20.913037      19.349756      1.5632814     -0.98497655     18611.443    
     78000   0.97937511     0.0023323615  -0.0042183478   20.871686      19.417314      1.454372      -1.0432376      18815.748    
     79000   1.0550271      0.0023323615   0.00062979217  20.93198       19.365265      1.5667153     -1.2693675      18631.774    
     80000   0.95094792     0.0023323615   0.00074163113  20.711457      19.299299      1.4121577     -1.2120822      18513.287    
     81000   0.92629996     0.0023323615  -0.00039610675  20.583784      19.208229      1.3755554     -1.2681752      18567.208    
     82000   0.93732351     0.0023323615   0.00081810838  20.780422      19.388496      1.3919254     -1.2138585      18758.465    
     83000   1.0137585      0.0023323615   0.0008288762   20.934613      19.429182      1.5054314     -1.1012327      18715.905    
     84000   0.84226486     0.0023323615  -0.0042185464   20.56344       19.312677      1.2507633     -1.2173272      18766.239    
     85000   0.9781791      0.0023323615  -0.0012533067   20.799424      19.346828      1.452596      -1.2364021      18672.852    
     86000   1.0322129      0.0023323615   0.0035919377   20.779589      19.246752      1.5328362     -1.225692       18706.473    
     87000   0.91791201     0.0023323615  -0.0023156357   20.623294      19.260194      1.3630993     -1.1788018      18623.146    
     88000   0.99231015     0.0023323615   0.0018651282   20.985748      19.512167      1.4735806     -1.0823307      18738.716    
     89000   1.1100599      0.0023323615  -0.0021475985   21.170601      19.522162      1.6484389     -1.104831       18807.26     
     90000   1.0688784      0.0023323615   0.00085851296  20.921954      19.33467       1.5872844     -1.1544301      19032.885    
     91000   1.01586        0.0023323615  -0.002027671    20.975536      19.466984      1.5085521     -1.0762862      18819.325    
     92000   1.1032628      0.0023323615  -0.0014812108   20.991775      19.353429      1.6383452     -1.1585919      18736.384    
     93000   0.92782651     0.0023323615  -0.0056203915   20.78441       19.406587      1.3778224     -1.180087       18726.555    
     94000   0.96712654     0.0023323615   0.00048194628  20.983911      19.547728      1.4361829     -0.85899387     18690.002    
     95000   1.0893413      0.0023323615  -0.0023249416   21.139322      19.52165       1.6176718     -1.0476115      18837.481    
     96000   1.0482598      0.0023323615   0.00065216845  21.064996      19.50833       1.5566659     -1.0674274      18723.39     
     97000   1.0795159      0.0023323615  -0.0058773263   20.86407       19.260988      1.6030812     -1.419241       18750.375    
     98000   1.0241912      0.0023323615   0.00019667937  20.877509      19.356585      1.5209239     -1.0836407      18844.163    
     99000   1.0164576      0.0023323615  -0.001166565    20.845135      19.335696      1.5094396     -1.1609525      18559.426    
    100000   0.95871913     0.0023323615   0.0025715858   20.930488      19.50679       1.4236979     -0.95344445     18591.614    
    101000   1.0441537      0.0023323615  -0.0020024697   20.88596       19.335391      1.5505683     -1.1829193      18743.389    
    102000   0.9470343      0.0023323615  -0.0012082552   20.609168      19.202822      1.4063459     -1.298515       18610.041    
    103000   0.81810065     0.0023323615   0.00048759233  20.443636      19.228757      1.2148795     -1.1400014      18620.818    
    104000   0.96994165     0.0023323615   0.004492918    20.872804      19.432441      1.4403633     -1.2491441      18633.705    
    105000   1.1203381      0.0023323615   0.0022285117   21.128691      19.464989      1.6637021     -1.0985552      18560.089    
    106000   0.95998337     0.0023323615   0.0035169086   20.637237      19.211661      1.4255753     -1.2526245      18653.327    
    107000   0.90625768     0.0023323615   0.004313065    20.722188      19.376395      1.3457927     -1.2065408      18563.582    
    108000   0.93885571     0.0023323615   0.00010479191  20.601142      19.206941      1.3942007     -1.2311693      18554.672    
    109000   1.0367954      0.0023323615  -0.0034766598   21.199776      19.660135      1.5396411     -0.91362834     18672.716    
    110000   0.82655779     0.0023323615  -0.001835483    20.263999      19.036561      1.2274383     -1.3525917      18715.15     
    111000   0.96437933     0.0023323615   0.00015044529  21.00697       19.574867      1.4321033     -0.99719796     18631.621    
    112000   0.96508217     0.0023323615   0.0041168163   20.533336      19.100189      1.433147      -1.4643642      18608.865    
    113000   0.92349218     0.0023323615  -0.0013978558   20.678964      19.307578      1.3713859     -1.1820776      18624.05     
    114000   1.0098662      0.0023323615  -0.0033640691   20.655853      19.156202      1.4996513     -1.3601459      18672.552    
    115000   0.90347966     0.0023323615  -0.0031759945   20.574204      19.232537      1.3416673     -1.3629432      18542.456    
    116000   0.94490445     0.0023323615  -0.00043629408  20.501877      19.098694      1.4031831     -1.4052994      18486.33     
    117000   1.0984302      0.0023323615   0.0011178135   20.783538      19.152369      1.6311688     -1.2789192      18589.138    
    118000   0.86305364     0.0023323615   0.0013750119   20.790367      19.508732      1.2816347     -1.1087737      18604.335    
    119000   0.94295952     0.0023323615   0.00059024823  20.86215       19.461855      1.4002949     -1.0395066      18644.822    
    120000   0.92246175     0.0023323615   0.0053421082   20.502567      19.132711      1.3698557     -1.3021718      18748.452    
    121000   0.89873211     0.0023323615  -0.00042738525  20.539568      19.204951      1.3346172     -1.2544669      18562.712    
    122000   1.0284003      0.0023323615  -0.0010856159   20.644426      19.117252      1.5271744     -1.4677207      18664.605    
    123000   1.0824173      0.0023323615  -0.00050349628  20.720049      19.11266       1.6073897     -1.3880996      18458.948    
    124000   0.94565093     0.0023323615   0.00068885134  20.535913      19.131621      1.4042916     -1.4179892      18455.976    
    125000   0.90134483     0.0023323615  -0.0064039126   20.60765       19.269153      1.3384971     -1.2684279      18523.1      
    126000   0.93721172     0.0023323615  -0.0018835176   20.974416      19.582657      1.3917594     -1.0155597      18535.689    
    127000   0.97105862     0.0023323615   0.00010884149  20.72233       19.280308      1.4420221     -1.1633319      18622.184    
    128000   0.98986996     0.0023323615  -0.0017010649   20.57967       19.109713      1.4699569     -1.3729223      18590.205    
    129000   0.96753132     0.0023323615   0.002942208    20.680885      19.244101      1.436784      -1.356941       18487.035    
    130000   0.93573137     0.0023323615  -0.00048367567  20.805396      19.415835      1.3895611     -1.0625065      18666.381    
    131000   1.0915218      0.0023323615   0.004306227    20.981596      19.360686      1.6209099     -1.094265       18863.997    
    132000   0.91469237     0.0023323615   0.0014332686   20.599743      19.241424      1.3583182     -1.3171003      18706.817    
    133000   1.0223106      0.0023323615   0.0007442952   20.949978      19.431847      1.5181313     -1.069205       18598.872    
    134000   1.0238973      0.0023323615   0.0028230905   20.683791      19.163303      1.5204875     -1.3339767      18714.694    
    135000   1.0243861      0.0023323615   0.0022037168   20.784932      19.263719      1.5212134     -1.1546494      18758.839    
    136000   0.87549978     0.0023323615   0.001681865    20.844649      19.544532      1.3001172     -1.0725796      18654.471    
    137000   0.77324207     0.0023323615  -0.0023471985   20.164089      19.015824      1.1482645     -1.446048       18552.375    
    138000   0.9062502      0.0023323615  -0.00063150745  20.783519      19.437737      1.3457816     -1.0642961      18674.777    
    139000   1.0094645      0.0023323615  -0.0017733375   20.959792      19.460738      1.4990548     -1.093645       18651.633    
    140000   0.97703514     0.0023323615  -0.0049302634   20.899694      19.448797      1.4508972     -1.2035925      18554.2      
    141000   0.92181664     0.0023323615   0.00055791304  20.554078      19.185181      1.3688977     -1.2377788      18612.658    
    142000   0.96554929     0.0023323615  -0.0032607373   20.806106      19.372266      1.4338407     -1.079754       18677.125    
    143000   0.79291941     0.0023323615   0.0036318997   20.767829      19.590344      1.1774853     -0.96550492     18690.829    
    144000   1.0722556      0.0023323615  -0.0027368537   20.857383      19.265083      1.5922995     -1.2400415      18676.699    
    145000   0.9409709      0.0023323615  -0.0081851315   20.729919      19.332577      1.3973418     -1.2035722      18555.417    
    146000   0.97902687     0.0023323615   0.0029733247   20.767469      19.313614      1.4538549     -1.2365557      18523.062    
    147000   0.89775954     0.0023323615  -0.00053485778  20.900304      19.567131      1.3331729     -0.93610661     18756.53     
    148000   1.0582009      0.0023323615  -0.0025571538   20.813187      19.241758      1.5714283     -1.1524926      19514.468    
    149000   0.93750403     0.0023323615   0.001047861    20.7572        19.365006      1.3921935     -1.1076597      19949.131    
    150000   1.0078347      0.0023323615  -0.00041287023  20.982613      19.485978      1.4966346     -1.0742092      20015.169    
    151000   0.87116813     0.0023323615  -0.0038677035   21.117587      19.823902      1.2936847     -0.83637812     19091.49     
    152000   1.0970806      0.0023323615   0.0024123277   20.793712      19.164547      1.6291647     -1.3327086      18796.31     
    153000   1.0125893      0.0023323615  -0.0041143358   20.992777      19.489082      1.5036951     -1.2378915      18538.137    
    154000   0.94269363     0.0023323615  -0.0032484571   20.755112      19.355212      1.3999        -1.2804359      18456.368    
    155000   1.0328831      0.0023323615   0.00093359513  20.796652      19.26282       1.5338314     -1.2784241      18459.215    
    156000   1.192969       0.0023323615   0.00039879273  20.8821        19.110541      1.771559      -1.4218619      18447.881    
    157000   1.0100651      0.0023323615   0.0029217314   20.612961      19.113015      1.4999466     -1.363114       18498.314    
    158000   0.94554677     0.0023323615  -0.00046777569  20.61462       19.210483      1.404137      -1.2462017      18440.063    
    159000   0.91566183     0.0023323615   0.0023944015   20.616511      19.256754      1.3597578     -1.3255534      18398.187    
    160000   1.0352102      0.0023323615   0.00057605229  20.881138      19.343851      1.5372871     -1.2176396      18478.061    
    161000   1.117767       0.0023323615  -0.0015588287   21.060763      19.400879      1.6598841     -1.1231495      18471.096    
    162000   1.0711828      0.0023323615   0.0031973321   20.850435      19.259728      1.5907064     -1.2821346      18511.114    
    163000   0.97858794     0.0023323615   0.0021407862   20.637795      19.184591      1.4532031     -1.3918822      18530.955    
    164000   1.0831291      0.0023323615  -0.0036256664   20.762977      19.15453       1.6084467     -1.3784387      18471.444    
    165000   0.9966814      0.0023323615   0.0054279646   20.788486      19.308414      1.4800719     -1.1161268      18565.906    
    166000   1.0022516      0.0023323615   0.0018057951   20.846548      19.358205      1.4883436     -1.3033263      18546.78     
    167000   1.1248962      0.0023323615  -0.0024511016   20.928601      19.25813       1.6704709     -1.1962613      18677.912    
    168000   0.88438207     0.0023323615  -0.0018059865   20.676073      19.362766      1.3133074     -1.195179       18859.958    
    169000   1.0012362      0.0023323615  -0.00065211504  20.687228      19.200392      1.4868357     -1.2582315      18710.751    
    170000   0.85668895     0.0023323615  -0.0015337196   20.416135      19.143952      1.2721831     -1.3659606      18530.514    
    171000   0.98690721     0.0023323615   0.0014411473   20.660644      19.195087      1.4655572     -1.3114128      18581.739    
    172000   1.0517921      0.0023323615   0.00060617306  20.659838      19.097927      1.5619112     -1.4083577      18532.052    
    173000   1.0743635      0.0023323615  -0.0033157067   21.116346      19.520916      1.5954298     -1.189646       18740.035    
    174000   0.91979461     0.0023323615  -0.0022884758   20.707822      19.341927      1.365895      -1.2227848      18661.15     
    175000   0.93105522     0.0023323615   0.00050020956  20.844723      19.462106      1.382617      -1.0818726      18818.42     
    176000   1.0689038      0.0023323615   0.00068235214  20.928278      19.340956      1.5873222     -1.1846672      18601.114    
    177000   1.1846146      0.0023323615   0.0017799317   21.137976      19.378823      1.7591527     -1.1914147      18610.351    
    178000   1.1107976      0.0023323615  -0.003883408    20.975817      19.326282      1.6495344     -1.2020178      18665.998    
    179000   1.0613379      0.0023323615  -0.0038392073   21.096696      19.520609      1.5760867     -0.92599783     18732.938    
    180000   1.0656842      0.0023323615  -0.00091392947  21.182152      19.599611      1.582541      -1.0819042      19002.393    
    181000   0.94494704     0.0023323615  -0.0026525549   20.727001      19.323754      1.4032464     -1.0862369      19143.591    
    182000   1.0019375      0.0023323615   0.0025054537   21.106402      19.618525      1.4878772     -1.0514161      18661.555    
    183000   0.9736501      0.0023323615   0.0048013149   20.859024      19.413153      1.4458704     -1.1319363      18715.137    
    184000   0.9583542      0.0023323615   0.0036369334   20.747039      19.323883      1.423156      -1.1615697      18685.125    
    185000   0.97183271     0.0023323615  -0.0012894737   20.962306      19.519134      1.4431716     -0.95611709     18732.326    
    186000   1.0961823      0.0023323615  -0.00057350381  20.801763      19.173932      1.6278307     -1.1732763      18707.837    
    187000   1.0320057      0.0023323615   0.0012874961   20.811276      19.278747      1.5325285     -1.2153412      18549.803    
    188000   1.0294954      0.0023323615  -0.0040174911   20.973194      19.444393      1.5288006     -1.1701371      18602.425    
    189000   0.86581528     0.0023323615  -0.0055282334   20.608749      19.323013      1.2857357     -1.2318277      18668.861    
    190000   1.1159198      0.0023323615   0.00081042046  20.865149      19.208008      1.6571409     -1.2957316      18717.716    
    191000   0.93241724     0.0023323615   0.0016471593   20.834341      19.449702      1.3846396     -1.1310533      18782.215    
    192000   0.95269783     0.0023323615   0.0027936523   20.717456      19.3027        1.4147563     -1.1791726      19042.115    
    193000   0.84966838     0.0023323615  -0.0024232384   20.806734      19.544977      1.2617575     -1.0093012      18974.433    
    194000   1.0393983      0.0023323615   0.0052488197   21.138647      19.59514       1.5435065     -1.0204028      19429.06     
    195000   1.01599        0.0023323615  -0.0007747508   20.932665      19.423919      1.5087452     -1.0860578      19043.71     
    196000   1.0663267      0.0023323615  -0.0012027125   20.844527      19.261032      1.5834951     -1.2411732      18791.557    
    197000   0.81359401     0.0023323615   0.0028981804   20.652284      19.444097      1.2081871     -1.0167784      18749.128    
    198000   1.0620572      0.0023323615  -0.0027797832   21.023169      19.446014      1.5771549     -1.0129525      18763.759    
    199000   0.89571223     0.0023323615  -0.0015501592   20.701421      19.371288      1.3301327     -1.1381273      19098.438    
    200000   1.0909972      0.0023323615  -0.0007373239   20.892512      19.272381      1.6201309     -1.1055374      18802.092    
    201000   0.99898752     0.0023323615   0.00017345046  20.712667      19.22917       1.4834965     -1.2685289      18723.502    
    202000   1.0470631      0.0023323615   0.0013119608   21.055468      19.50058       1.5548888     -1.0473369      18603.944    
    203000   1.0543662      0.0023323615  -0.0016500161   20.952749      19.387015      1.5657339     -1.1095404      18801.904    
    204000   1.0172507      0.0023323615  -0.00073810908  20.669765      19.159148      1.5106173     -1.2887221      18772.705    
    205000   1.0644124      0.0023323615   0.0017780477   21.082286      19.501633      1.5806525     -1.0979088      18538.964    
    206000   0.97598415     0.0023323615   0.0044768775   20.681621      19.232284      1.4493365     -1.3006747      18512.872    
    207000   0.9622974      0.0023323615   5.4499921e-05  20.722317      19.293305      1.4290116     -1.2656859      18459.099    
    208000   0.92142324     0.0023323615  -0.0046372016   20.648721      19.280408      1.3683135     -1.1934304      18690.104    
    209000   1.0077042      0.0023323615   0.0025646462   20.927673      19.431232      1.4964408     -1.1459679      18684.719    
    210000   1.0054494      0.0023323615  -0.0019964891   21.06866       19.575568      1.4930923     -0.96970098     18860.508    
    211000   1.0663738      0.0023323615   0.00088542866  20.732804      19.149239      1.5835651     -1.3657026      18646.902    
    212000   1.035808       0.0023323615  -0.0026938761   21.035242      19.497068      1.5381748     -1.069111       18795.694    
    213000   0.90058758     0.0023323615  -0.0020380287   20.564043      19.226671      1.3373726     -1.2537631      18695.471    
    214000   0.88904809     0.0023323615  -0.0028006728   20.418561      19.098324      1.3202364     -1.3979896      18718.523    
    215000   0.95279497     0.0023323615   0.0044825292   20.92265       19.507749      1.4149005     -1.2440166      18732.235    
    216000   1.0172464      0.0023323615  -0.0023534584   20.742804      19.232193      1.5106109     -1.226283       18647.797    
    217000   0.85243517     0.0023323615   0.0031469497   20.504895      19.239029      1.2658662     -1.2597712      18715.438    
    218000   1.0729184      0.0023323615  -5.0846575e-05  21.077964      19.48468       1.5932838     -1.1051753      18567.557    
    219000   1.0195996      0.0023323615  -0.001643524    20.977508      19.463403      1.5141054     -1.2023688      18750.188    
    220000   1.0382333      0.0023323615   0.0015257887   20.790621      19.248844      1.5417765     -1.2033143      18728.671    
    221000   0.95840081     0.0023323615   0.0017716522   20.831672      19.408447      1.4232252     -1.0940454      18703.914    
    222000   1.1200843      0.0023323615  -0.0064102939   21.06675       19.403425      1.6633252     -1.1383088      18718.26     
    223000   1.0315324      0.0023323615   0.00029972425  20.892141      19.360315      1.5318256     -1.2068555      18626.781    
    224000   0.93574193     0.0023323615   0.0021175452   20.494434      19.104857      1.3895768     -1.3777247      18543.638    
    225000   0.98392322     0.0023323615  -0.0051181814   20.811288      19.350162      1.461126      -1.251599       18576.929    
    226000   0.95885462     0.0023323615   0.0015234647   20.668091      19.244191      1.4238991     -1.3107287      18555.476    
    227000   0.95806158     0.0023323615   0.0010782704   20.678562      19.25584       1.4227215     -1.2782059      18659.005    
    228000   0.98144571     0.0023323615   0.0066208636   20.885152      19.427705      1.4574469     -1.0818455      18629.298    
    229000   0.91012973     0.0023323615  -0.00066363736  20.555991      19.204448      1.3515426     -1.2204621      18661.649    
    230000   0.90087741     0.0023323615  -0.00056097977  20.658436      19.320633      1.337803      -1.2617176      18575.376    
    231000   1.0315143      0.0023323615  -0.00014552878  20.855252      19.323454      1.5317987     -1.2211949      18543.324    
    232000   0.95415515     0.0023323615   0.0029433311   20.809046      19.392125      1.4169204     -1.1180459      18598.148    
    233000   1.0004095      0.0023323615  -0.0029721802   21.045003      19.559395      1.4856082     -1.1605286      18659.898    
    234000   1.1935549      0.0023323615   0.00068701971  20.759163      18.986734      1.7724291     -1.5369089      18590.579    
    235000   1.0689498      0.0023323615  -0.00046742981  20.676463      19.089073      1.5873905     -1.3837812      18408.116    
    236000   1.0066829      0.0023323615   0.0005028399   20.990505      19.495581      1.4949242     -1.1191078      18432.329    
    237000   1.0460998      0.0023323615   0.00039011096  20.646224      19.092765      1.5534583     -1.3184374      18582.836    
    238000   0.93765511     0.0023323615   0.0015878696   20.741918      19.3495        1.3924178     -1.2245353      18757.017    
    239000   1.0054772      0.0023323615   0.0058125116   20.907005      19.413871      1.4931336     -1.0698304      18762.161    
    240000   0.99692923     0.0023323615  -0.002024551    20.902012      19.421572      1.4804399     -1.2173775      18855.612    
    241000   0.8549346      0.0023323615  -0.0011402038   20.304214      19.034636      1.2695779     -1.431228       18634.971    
    242000   1.0336934      0.0023323615   0.002311703    20.915082      19.380048      1.5350346     -1.1669223      18669.391    
    243000   0.99272083     0.0023323615  -0.0019398925   20.907853      19.433662      1.4741904     -1.0510147      18720.718    
    244000   1.1157667      0.0023323615  -0.0019885868   20.88897       19.232057      1.6569136     -1.0900729      18763.995    
    245000   1.0294864      0.0023323615  -0.0011785482   20.903382      19.374595      1.5287873     -1.161674       18744.927    
    246000   0.93814033     0.0023323615   0.0012379381   20.786735      19.393597      1.3931384     -1.1181028      18558.84     
    247000   0.81535558     0.0023323615  -0.0020756578   20.446831      19.236028      1.210803      -1.2200519      18534.354    
    248000   1.0508747      0.0023323615   0.0011278756   20.750716      19.190167      1.5605489     -1.2371607      18588.723    
    249000   0.99781713     0.0023323615  -0.0028668074   20.734319      19.252561      1.4817584     -1.317727       18588.245    
    250000   1.0499108      0.0023323615  -0.0021950515   20.936956      19.377838      1.5591176     -1.1349473      18546.659    
    251000   1.1501894      0.0023323615   0.0040234391   21.29495       19.586919      1.7080312     -1.0391117      18636.648    
    252000   0.98082784     0.0023323615  -0.0020533939   20.697137      19.240608      1.4565293     -1.2720192      18506.604    
    253000   0.99224493     0.0023323615   0.00095589646  20.920666      19.447182      1.4734837     -1.0363601      18615.251    
    254000   1.0673149      0.0023323615   0.00030542448  20.878088      19.293125      1.5849626     -1.2373873      18723.457    
    255000   0.83031755     0.0023323615   0.00097370807  20.586506      19.353484      1.2330216     -1.157762       18536.368    
    256000   1.0248035      0.0023323615  -0.0050572088   20.84341       19.321577      1.5218332     -1.1938456      18860.111    
    257000   1.020159       0.0023323615  -0.0012656195   21.010454      19.495517      1.5149362     -1.0957994      18617.977    
    258000   0.87824442     0.0023323615  -0.0026886932   20.625051      19.320858      1.304193      -1.1894288      18552.241    
    259000   0.94859832     0.0023323615   0.0038201825   20.551979      19.143311      1.4086685     -1.4071951      18575.131    
    260000   0.86859618     0.0023323615  -0.00035873297  20.532818      19.242952      1.2898653     -1.2659956      18442.032    
    261000   0.93958396     0.0023323615  -0.0028565297   20.916991      19.521709      1.3952822     -1.1371874      18600.612    
    262000   1.0646224      0.0023323615   0.0011379415   20.735904      19.15494       1.5809643     -1.3381922      18678.939    
    263000   1.1932893      0.0023323615   9.9708504e-06  20.991256      19.219222      1.7720346     -1.3086747      18669.611    
    264000   0.91820158     0.0023323615   0.0016436401   20.392883      19.029354      1.3635293     -1.4633557      18564.411    
    265000   1.0397165      0.0023323615   0.0018662414   20.526871      18.982892      1.543979      -1.5641485      18489.82     
    266000   0.96769602     0.0023323615   0.0032094333   20.644496      19.207468      1.4370286     -1.4423362      18441.129    
    267000   0.89553887     0.0023323615   0.0020993857   20.764264      19.434389      1.3298752     -1.2237797      18564        
    268000   0.85587961     0.0023323615  -0.0043111435   20.752168      19.481187      1.2709812     -1.1652001      18515.908    
    269000   0.93634969     0.0023323615   0.0029448761   20.96045       19.56997       1.3904793     -1.0414236      18790.881    
    270000   1.1079554      0.0023323615  -0.0020617394   20.672757      19.027443      1.6453137     -1.5221323      18747.082    
    271000   1.1000144      0.0023323615  -0.0043368063   20.98294       19.349419      1.6335214     -1.1994595      18504.724    
    272000   0.84701905     0.0023323615   0.0032204704   20.425172      19.167349      1.2578233     -1.3298963      18800.523    
    273000   0.99680405     0.0023323615   0.0013737851   20.662449      19.182195      1.480254      -1.4183971      18705.575    
    274000   1.0962186      0.0023323615   0.00035463735  21.049002      19.421117      1.6278847     -1.0066242      18693.962    
    275000   0.98063604     0.0023323615   0.00017253469  20.98216       19.525915      1.4562445     -1.0987336      18613.582    
    276000   1.0199258      0.0023323615   0.0031568498   20.651289      19.136699      1.5145898     -1.3204145      18783.855    
    277000   0.86805034     0.0023323615   0.003301641    20.629447      19.340393      1.2890547     -1.2278537      18752.992    
    278000   0.95596169     0.0023323615  -0.0032335971   20.658291      19.238688      1.4196031     -1.2601973      18653.98     
    279000   0.91774897     0.0023323615  -0.00015284444  20.690393      19.327536      1.3628572     -1.1868377      18650.407    
    280000   0.86544549     0.0023323615   0.0013616091   20.452295      19.167109      1.2851865     -1.2261182      18647.752    
    281000   0.91697908     0.0023323615  -0.0037454346   20.595586      19.233872      1.3617139     -1.1720967      18588.941    
    282000   1.009068       0.0023323615  -0.0040037341   20.896044      19.397578      1.4984659     -1.1723993      18568.227    
    283000   0.87408824     0.0023323615   0.00024634819  20.465321      19.1673        1.298021      -1.4220143      18454.464    
    284000   0.96361517     0.0023323615   2.2453221e-05  20.71663       19.285662      1.4309685     -1.1342476      18509.278    
    285000   1.0808069      0.0023323615   0.0023439216   20.817409      19.212411      1.6049983     -1.356201       18514.397    
    286000   1.0801959      0.0023323615   0.0028108004   20.895323      19.291232      1.6040908     -1.2711853      18624.189    
    287000   1.0155375      0.0023323615  -0.0055325162   20.78477       19.276697      1.5080732     -1.2906749      18532.289    
    288000   0.94790041     0.0023323615   0.00019736272  20.760008      19.352376      1.4076321     -1.2844949      18451.199    
    289000   1.0317968      0.0023323615   5.3331774e-05  20.635696      19.103478      1.5322183     -1.4019731      18491.724    
    290000   0.98438021     0.0023323615  -0.0042138689   20.621427      19.159623      1.4618046     -1.3111774      18400.059    
    291000   1.1071106      0.0023323615   0.0013630637   21.162071      19.518011      1.6440592     -0.96792595     18523.832    
    292000   0.90381364     0.0023323615   0.0036206271   20.552057      19.209894      1.3421633     -1.2741886      18501.373    
    293000   0.9116273      0.0023323615   0.00022543874  20.535751      19.181985      1.3537665     -1.3608192      18475.072    
    294000   1.080382       0.0023323615  -0.0014531928   20.744403      19.140036      1.6043673     -1.3431735      18330.371    
    295000   0.90399571     0.0023323615  -0.0038591603   20.589848      19.247414      1.3424336     -1.332932       18463.705    
    296000   0.91297102     0.0023323615  -0.0031625923   20.470265      19.114503      1.355762      -1.2568797      18643.663    
    297000   0.9012365      0.0023323615   0.0020972048   20.645715      19.307378      1.3383362     -1.2056136      18684.387    
    298000   0.95486788     0.0023323615  -0.0038960813   20.68747       19.269491      1.4179788     -1.3434415      18629.764    
    299000   1.0503376      0.0023323615  -0.0015689955   20.633743      19.073992      1.5597514     -1.4935752      18469.886    
    300000   0.92089082     0.0023323615   0.0030279315   20.708693      19.34117       1.3675229     -1.194333       18689.96     
    301000   0.95319929     0.0023323615  -0.00042483291  20.69268       19.277179      1.4155009     -1.3941505      18689.167    
    302000   0.96522895     0.0023323615  -0.003088693    20.672135      19.23877       1.433365      -1.3358739      18710.151    
    303000   1.042815       0.0023323615   0.0049140947   20.999918      19.451338      1.5485802     -1.2824262      18600.165    
    304000   1.0909486      0.0023323615   0.00037544718  20.933925      19.313867      1.6200587     -1.26646        18719.643    
    305000   1.0631804      0.0023323615   0.0012682634   20.767046      19.188223      1.5788228     -1.328397       18561.435    
    306000   0.96108289     0.0023323615   0.00098025261  20.825827      19.398619      1.4272081     -1.0853579      18658.206    
    307000   1.0056017      0.0023323615  -0.0017766141   21.034811      19.541493      1.4933185     -1.0092469      18848.085    
    308000   1.130383       0.0023323615   0.00083720595  21.05526       19.376642      1.6786188     -1.074783       18905.38     
    309000   1.1548727      0.0023323615  -0.0017173541   21.317005      19.602019      1.7149859     -1.0196595      18919.57     
    310000   1.0058398      0.0023323615   0.0014700089   20.856526      19.362854      1.4936721     -1.1523738      18807.945    
    311000   0.95482132     0.0023323615  -0.0027445009   20.990716      19.572806      1.4179097     -0.97720587     18693.059    
    312000   1.0841408      0.0023323615   0.0016106865   20.817774      19.207825      1.6099492     -1.2298113      18764.327    
    313000   0.98110603     0.0023323615   0.0026587662   20.642366      19.185424      1.4569425     -1.3653065      18793.563    
    314000   1.0199151      0.0023323615   0.0014017864   20.650079      19.135505      1.5145739     -1.258603       18529.035    
    315000   1.0068145      0.0023323615   0.0028092105   21.034405      19.539285      1.4951195     -1.0612642      18824.489    
    316000   1.0361458      0.0023323615  -0.002451999    20.971708      19.433032      1.5386765     -1.1532244      18785.757    
    317000   1.0244042      0.0023323615   0.0026853337   20.859965      19.338725      1.5212402     -1.17648        18590.516    
    318000   1.0839921      0.0023323615   0.0031853179   21.107356      19.497627      1.6097283     -1.0912355      18501.654    
    319000   0.98853084     0.0023323615  -0.0040451681   20.892781      19.424812      1.4679683     -1.1017064      18826.662    
    320000   0.95177131     0.0023323615  -0.00099404299  20.957144      19.543764      1.4133804     -1.0789412      18730.452    
    321000   1.0503391      0.0023323615  -0.0015325604   21.102617      19.542864      1.5597536     -1.0491798      18674.082    
    322000   1.0248598      0.0023323615   0.0015698022   20.991834      19.469918      1.5219168     -1.1743358      18577.036    
    323000   1.0230901      0.0023323615  -0.0011732899   20.802127      19.282838      1.5192888     -1.3337671      18639.328    
    324000   0.91955988     0.0023323615  -0.0014884095   20.793106      19.42756       1.3655464     -1.1548504      18629.333    
    325000   0.94804212     0.0023323615   0.00089707774  20.629077      19.221234      1.4078425     -1.2634234      18707.265    
    326000   1.040727       0.0023323615  -0.00077341262  20.94449       19.39901       1.5454796     -1.0870189      18685.318    
    327000   0.96179975     0.0023323615  -0.0004878451   20.890545      19.462273      1.4282726     -1.1085497      18706.406    
    328000   1.1176662      0.0023323615  -0.00040787957  20.893705      19.233971      1.6597342     -1.322727       18620.634    
    329000   0.93081051     0.0023323615   0.00429747     20.79791       19.415657      1.3822536     -1.2137194      18756.922    
    330000   1.2039255      0.0023323615   0.00042972684  20.921908      19.134079      1.7878293     -1.3619584      18666.05     
    331000   1.036802       0.0023323615   0.0025154001   20.860373      19.320722      1.539651      -1.2762525      18588.765    
    332000   1.052283       0.0023323615  -0.00069802915  20.708551      19.145911      1.5626402     -1.3423416      18520.24     
    333000   1.0692849      0.0023323615   0.0041717375   20.917745      19.329857      1.5878881     -1.2123438      18486.131    
    334000   0.93308498     0.0023323615   0.0043954446   20.573696      19.188065      1.3856312     -1.3579607      18513.298    
    335000   1.0361162      0.0023323615  -0.0034610434   20.776756      19.238124      1.5386325     -1.2940446      18641.048    
    336000   0.92284322     0.0023323615  -0.00050095203  20.55499       19.184568      1.3704222     -1.283012       18457.993    
    337000   1.0112675      0.0023323615   0.0054870719   20.846481      19.344749      1.5017322     -1.1147336      18560.865    
    338000   0.90050754     0.0023323615  -2.8828042e-05  20.609103      19.271849      1.3372537     -1.1536485      18612.068    
    339000   0.94759004     0.0023323615  -0.0013320784   20.843029      19.435858      1.4071712     -1.0528629      18802.545    
    340000   1.0953777      0.0023323615  -0.0050506052   20.928642      19.302006      1.6266359     -1.1991386      18798.147    
    341000   1.1466446      0.0023323615  -0.0050223689   21.227819      19.525052      1.7027672     -0.99925024     18947.272    
    342000   1.0711364      0.0023323615   0.004196296    20.942411      19.351773      1.5906376     -1.1602109      18938.277    
    343000   0.94746609     0.0023323615  -0.00086317895  20.909653      19.502666      1.4069871     -1.0773187      18859.51     
    344000   0.99320654     0.0023323615   0.00076099888  21.032138      19.557227      1.4749117     -1.023618       18772.246    
    345000   1.0485127      0.0023323615  -0.00054405671  20.726547      19.169506      1.5570413     -1.2055589      18839.241    
    346000   1.0101474      0.0023323615  -0.0017679479   20.679432      19.179363      1.5000688     -1.2645007      18721.325    
    347000   1.0662479      0.0023323615  -0.00096027309  20.850857      19.267479      1.5833781     -1.1591676      18593.194    
    348000   0.99368607     0.0023323615   7.1841286e-05  20.539234      19.06361       1.4756238     -1.4720323      18578.115    
    349000   1.065408       0.0023323615   0.0021683875   20.784882      19.202751      1.5821308     -1.2700971      18590.738    
    350000   0.85747092     0.0023323615  -0.0027533262   20.846627      19.573283      1.2733443     -1.0036338      18607.325    
    351000   1.0104509      0.0023323615   0.00078414259  20.621475      19.120955      1.5005195     -1.3091839      18583.314    
    352000   1.0476308      0.0023323615   0.0035948592   20.751273      19.195541      1.5557317     -1.399916       18567.505    
    353000   0.93696999     0.0023323615  -0.0028732191   20.590875      19.199475      1.3914004     -1.3435238      18532.114    
    354000   0.96669345     0.0023323615   0.0013349545   20.723233      19.287693      1.4355398     -1.257996       18555.582    
    355000   1.0123277      0.0023323615  -0.0061937186   20.906734      19.403427      1.5033067     -1.133773       18804.299    
    356000   0.93223345     0.0023323615  -0.0010303543   20.860235      19.475869      1.3843667     -1.0607028      18733.399    
    357000   0.88295731     0.0023323615   0.00045154271  20.68025       19.369058      1.3111916     -1.3050615      18738.688    
    358000   0.9657964      0.0023323615   0.0019495879   20.947551      19.513343      1.4342077     -0.99709017     18823.097    
    359000   1.0060207      0.0023323615   0.00072416299  20.711693      19.217752      1.4939408     -1.3156994      18730.15     
    360000   0.97619213     0.0023323615  -0.0023233402   20.719115      19.26947       1.4496453     -1.2103424      18698.469    
    361000   1.0449598      0.0023323615   0.0010136531   20.712087      19.160321      1.5517653     -1.3251312      18681.443    
    362000   1.0741219      0.0023323615  -0.0045073383   20.677938      19.082867      1.595071      -1.5268395      18573.665    
    363000   1.0991627      0.0023323615  -0.0036222378   20.854978      19.222722      1.6322566     -1.3319066      18532.926    
    364000   1.1526684      0.0023323615  -0.0037655548   21.278968      19.567256      1.7117126     -1.1358002      18520.419    
    365000   1.0588949      0.0023323615  -0.0026483625   20.977234      19.404775      1.5724589     -1.2347028      18659.716    
    366000   1.0723808      0.0023323615   0.0036030438   20.899844      19.307359      1.5924854     -1.2327618      18712.337    
    367000   1.0089979      0.0023323615  -0.00041133751  20.69428       19.195919      1.4983618     -1.247271       18476.663    
    368000   0.93764806     0.0023323615  -0.00071259593  20.624471      19.232064      1.3924074     -1.3181621      18575.321    
    369000   0.8805513      0.0023323615  -0.0029067956   20.48925       19.181631      1.3076187     -1.2885213      18704.17     
    370000   0.87202109     0.0023323615   0.00073589668  20.544892      19.249941      1.2949513     -1.2483245      18607.644    
    371000   1.0634992      0.0023323615  -0.00036509637  20.651265      19.071969      1.5792964     -1.4410791      18568.124    
    372000   1.0334585      0.0023323615   0.0028170157   20.921669      19.386983      1.5346859     -1.1101966      18602.224    
    373000   1.1119065      0.0023323615  -0.0025945823   21.25634       19.605159      1.6511812     -0.97277364     18797.708    
    374000   1.022976       0.0023323615  -0.0016902381   20.927606      19.408487      1.5191194     -1.0569966      18577.261    
    375000   0.90177168     0.0023323615   0.00030972781  20.79398       19.454849      1.3391309     -1.1227547      18765.375    
    376000   0.98414702     0.0023323615  -0.0015650237   20.830644      19.369185      1.4614583     -1.2132482      18602.65     
    377000   1.1598332      0.0023323615  -0.0011206849   21.180471      19.458119      1.7223524     -1.0977099      18504.477    
    378000   0.99798216     0.0023323615   0.0020254239   20.950587      19.468583      1.4820035     -1.0370466      18757.123    
    379000   0.9699277      0.0023323615  -0.0031396578   20.733335      19.292992      1.4403426     -1.2608559      18727.353    
    380000   0.94983113     0.0023323615  -0.0016467758   20.786221      19.375722      1.4104992     -1.0607198      18615.074    
    381000   1.0493217      0.0023323615  -0.0001123214   20.965535      19.407293      1.5582427     -1.0967172      18585.452    
    382000   1.1335017      0.0023323615   0.00063943704  21.080656      19.397406      1.68325       -1.1503143      18505.736    
    383000   0.93809587     0.0023323615  -0.0013871089   20.931617      19.538545      1.3930724     -1.0008396      18677.188    
    384000   0.86745842     0.0023323615   0.00030482031  20.472859      19.184683      1.2881758     -1.2357127      18604.942    
    385000   1.0159141      0.0023323615   0.0039677386   20.68436       19.175728      1.5086325     -1.2171595      18491.32     
    386000   0.98245293     0.0023323615  -0.0018795652   20.873228      19.414286      1.4589426     -1.2134561      18459.57     
    387000   0.98546176     0.0023323615   0.004159977    20.75423       19.290819      1.4634107     -1.0799659      18584.829    
    388000   1.1284095      0.0023323615   0.0015460702   20.86866       19.192971      1.6756881     -1.279068       18722.674    
    389000   1.1241602      0.0023323615  -0.0018266727   21.091537      19.422159      1.6693778     -1.1373005      18658.164    
    390000   0.95029689     0.0023323615   0.00036677896  20.835608      19.424417      1.4111909     -1.1509699      18640.438    
    391000   0.8328301      0.0023323615  -0.0011302671   20.81787       19.581117      1.2367527     -0.87705311     19015.872    
    392000   0.9611383      0.0023323615   0.0021819226   20.78665       19.359359      1.4272904     -1.1115481      19151.595    
    393000   0.93666723     0.0023323615  -0.0010305597   20.613332      19.222381      1.3909508     -1.3624334      18546.863    
    394000   0.96438783     0.0023323615   0.0030616318   20.716406      19.28429       1.4321159     -1.1253077      18566.728    
    395000   0.92322944     0.0023323615   0.0023071508   20.662051      19.291055      1.3709957     -1.2038454      18481.243    
    396000   1.0059195      0.0023323615   0.0010381522   20.716425      19.222634      1.4937904     -1.3450205      18525.789    
    397000   0.91203646     0.0023323615  -0.00065362817  20.735354      19.38098       1.3543741     -1.2612789      18537.191    
    398000   1.0672214      0.0023323615   0.00039629216  20.716341      19.131518      1.5848238     -1.3385329      18420.362    
    399000   1.0977927      0.0023323615   0.0016856785   20.847682      19.21746       1.6302222     -1.2688634      18468.816    
    400000   1.132623       0.0023323615  -0.0038393984   21.204914      19.522969      1.6819452     -1.1936684      18598.48     
    401000   1.0307515      0.0023323615   0.001861083    20.96273       19.432064      1.530666      -1.159681       18581.549    
    402000   1.2169747      0.0023323615   0.00031091235  21.182544      19.375336      1.8072075     -1.2093556      18660.111    
    403000   1.0133142      0.0023323615  -0.0012716276   20.728466      19.223694      1.5047716     -1.2733019      18641.765    
    404000   0.96723452     0.0023323615   0.0030641188   21.00059       19.564247      1.4363433     -0.94179571     18676.954    
    405000   0.88255205     0.0023323615  -0.0038838747   20.875383      19.564793      1.3105898     -0.94968561     18744.35     
    406000   1.0398206      0.0023323615   0.0045518228   20.850462      19.306328      1.5441336     -1.1647285      18817.916    
    407000   0.94609895     0.0023323615   7.8762093e-05  20.737057      19.332101      1.4049569     -1.1166466      18626.91     
    408000   0.93083631     0.0023323615  -0.0048840633   20.921077      19.538785      1.3822919     -0.99243505     18706.214    
    409000   1.0510494      0.0023323615   0.004056613    20.870145      19.309337      1.5608083     -1.1729827      18837.943    
    410000   1.1848484      0.0023323615   0.00051948792  21.175491      19.415991      1.7594999     -1.17307        18734.394    
[...]
    861000   0.94517674     0.0023323615   5.9503252e-05  20.683281      19.279693      1.4035875     -1.226997       18462.011    
    862000   0.95791249     0.0023323615  -0.00085507923  20.798031      19.375531      1.4225        -1.1389534      18490.857    
    863000   1.062451       0.0023323615   0.0035129145   20.977         19.39926       1.5777398     -1.0744686      18705.674    
    864000   1.0938021      0.0023323615  -0.00047831321  21.002369      19.378073      1.6242961     -1.0580165      18549.141    
    865000   0.95840875     0.0023323615   0.0010887703   20.713376      19.290139      1.423237      -1.1729401      18493.132    
    866000   0.89717037     0.0023323615  -0.0012703778   20.487956      19.155658      1.332298      -1.3422367      18445.928    
    867000   1.1050361      0.0023323615  -0.00039576053  21.033981      19.393002      1.6409786     -1.1825601      18686.693    
    868000   0.90338473     0.0023323615   0.00040347839  20.69198       19.350454      1.3415263     -1.2569641      18695.67     
    869000   1.0748057      0.0023323615   0.00024660931  20.918034      19.321947      1.5960865     -1.1538619      18617.158    
    870000   1.0451366      0.0023323615  -0.00085649652  20.783769      19.231741      1.5520278     -1.3171171      18523.01     
    871000   1.0949018      0.0023323615   0.0043479416   20.723971      19.098042      1.6259291     -1.3186828      18614.05     
    872000   1.0658715      0.0023323615   0.0032631015   20.890388      19.307569      1.5828192     -1.3024119      18682.856    
    873000   0.9704374      0.0023323615   0.0016544357   20.76644       19.32534       1.4410995     -1.145235       18712.754    
    874000   1.0483856      0.0023323615   0.0027865409   20.694469      19.137617      1.5568526     -1.3028079      18659.978    
    875000   0.9709603      0.0023323615  -0.00086066042  20.909967      19.468091      1.441876      -1.0219352      19684.349    
    876000   1.0453815      0.0023323615   0.0014250495   20.720947      19.168555      1.5523915     -1.2823047      20236.569    
    877000   0.93077443     0.0023323615  -0.0018904662   20.484818      19.102618      1.3822        -1.3738903      20063.101    
    878000   0.97644201     0.0023323615   0.0033953564   20.983311      19.533295      1.4500164     -1.0460006      20038.004    
    879000   0.93863571     0.0023323615   0.0022870059   20.769318      19.375444      1.393874      -1.1079815      20058.722    
    880000   0.97337781     0.0023323615   0.0035585942   20.651213      19.205747      1.4454661     -1.2439585      20125.859    
    881000   0.90773129     0.0023323615   0.0026678751   20.550167      19.202186      1.347981      -1.3182213      20121.59     
    882000   1.1779167      0.0023323615   0.001782915    21.05972       19.310514      1.7492063     -1.1254884      20129.67     
    883000   0.98514702     0.0023323615  -0.00030486221  20.757227      19.294284      1.4629433     -1.1869902      20236.807    
    884000   0.95952871     0.0023323615   0.00051001431  20.663543      19.238643      1.4249001     -1.2338167      20132.114    
    885000   1.0594154      0.0023323615   0.0040939089   20.768853      19.195621      1.5732318     -1.3256237      20232.627    
    886000   0.97037425     0.0023323615   0.001553524    20.800184      19.359178      1.4410058     -1.2072298      20338.084    
    887000   0.94144281     0.0023323615   0.00050645948  20.963829      19.565786      1.3980426     -1.1285381      20097.492    
    888000   1.1059687      0.0023323615  -0.00036275323  20.954594      19.31223       1.6423635     -1.2765888      20290.035    
    889000   1.0497726      0.0023323615   0.0052630047   21.017867      19.458955      1.5589124     -1.0361761      20078.054    
    890000   1.1458929      0.0023323615  -0.0022510698   20.849503      19.147852      1.7016509     -1.3166221      20166.77     
    891000   1.0575594      0.0023323615   0.00062043891  20.806845      19.236369      1.5704758     -1.1943192      20353.87     
    892000   1.0293404      0.0023323615  -0.00080596048  21.005869      19.477299      1.5285704     -1.1695766      20526.905    
    893000   0.93104223     0.0023323615   0.0012294982   20.804216      19.421618      1.3825977     -1.0530716      20557.801    
    894000   1.03787        0.0023323615  -0.0031941606   20.888459      19.347222      1.541237      -1.1294236      20360.475    
    895000   0.97402257     0.0023323615   0.0017152049   20.777883      19.331459      1.4464235     -1.1440533      20043.923    
    896000   1.0074418      0.0023323615   0.0018055554   20.903998      19.407947      1.4960511     -1.0876736      20183.625    
    897000   0.89775921     0.0023323615  -0.0027633763   20.523917      19.190744      1.3331724     -1.3237262      20347.741    
    898000   0.88445604     0.0023323615  -0.0050352118   20.923606      19.610189      1.3134172     -0.95258282     20174.702    
    899000   1.0065507      0.0023323615  -0.0015674748   20.884524      19.389796      1.4947279     -1.1754626      20179.067    
    900000   1.025752       0.0023323615   0.0020735308   20.844269      19.321027      1.5232417     -1.3094881      20129.012    
    901000   1.0326255      0.0023323615  -0.0013584109   20.857842      19.324393      1.5334488     -1.1816603      20156.06     
    902000   1.0010227      0.0023323615  -0.0025329971   21.081046      19.594527      1.4865186     -0.9840617      20284.295    
    903000   1.0406667      0.0023323615  -0.0013006965   20.950461      19.405071      1.5453901     -1.1024705      20203.901    
    904000   1.0775974      0.0023323615   0.0025589221   21.023385      19.423153      1.6002321     -1.1952002      20332.131    
    905000   1.1784788      0.0023323615  -0.0050202111   21.043649      19.293608      1.750041      -1.3149573      20268.108    
    906000   1.1145527      0.0023323615   0.0012862519   20.925196      19.270085      1.6551108     -1.308234       20084.247    
    907000   0.91183615     0.0023323615  -0.0025479315   20.768304      19.414227      1.3540767     -1.0903556      20189.463    
    908000   1.0575429      0.0023323615   0.00064962324  20.878596      19.308145      1.5704512     -1.2004279      20138.589    
    909000   0.909814       0.0023323615  -0.00066826939  20.83462       19.483546      1.3510738     -1.166826       20195.86     
    910000   1.0527704      0.0023323615   0.0028395308   20.968162      19.404798      1.563364      -1.1016099      20201.17     
    911000   1.0285556      0.0023323615  -0.00083121783  21.02578       19.498375      1.5274051     -0.95702458     20220.032    
    912000   0.88225068     0.0023323615   0.0013291544   20.59379       19.283648      1.3101423     -1.1911913      20166.586    
    913000   1.0741535      0.0023323615   0.001631129    20.70109       19.105972      1.595118      -1.4293242      20102.495    
    914000   1.1355904      0.0023323615   0.0035720762   20.966537      19.280185      1.6863517     -1.2898954      20153.187    
    915000   1.0176471      0.0023323615   0.0032945578   20.908183      19.396977      1.511206      -1.2282377      20070.242    
    916000   1.0585111      0.0023323615  -0.0012437893   20.766527      19.194638      1.5718889     -1.1753156      20232.676    
    917000   0.98268783     0.0023323615   0.00057623344  20.759876      19.300584      1.4592914     -1.2049049      19667.771    
    918000   0.8550009      0.0023323615  -0.00014746054  20.765001      19.495325      1.2696763     -1.1161401      20020.982    
    919000   0.96191247     0.0023323615   0.0026969094   20.797654      19.369214      1.42844       -1.1557582      20119.197    
    920000   0.98479177     0.0023323615  -0.0026457386   20.904677      19.442262      1.4624158     -1.0901954      20097.844    
    921000   1.0735025      0.0023323615   0.0036902913   20.968511      19.37436       1.5941512     -1.0572065      20168.527    
    922000   1.0032736      0.0023323615   0.0026364644   20.938564      19.448703      1.4898613     -0.99416528     20246.872    
    923000   0.90853447     0.0023323615   0.00036174969  20.640098      19.290925      1.3491737     -1.2472477      20164.403    
    924000   0.9678823      0.0023323615  -0.0029443997   20.925176      19.487871      1.4373052     -1.1194107      20251.67     
    925000   1.1247646      0.0023323615   0.0039499515   20.852284      19.182008      1.6702755     -1.3273406      20133.82     
    926000   1.0829473      0.0023323615  -0.003944453    21.187798      19.579621      1.6081768     -0.95400836     20124.661    
    927000   1.0068708      0.0023323615   0.002775365    21.007783      19.51258       1.4952031     -1.0568419      20341.566    
    928000   1.0594491      0.0023323615   1.3057778e-05  20.805323      19.232041      1.5732818     -1.2371124      20145.365    
    929000   0.97815773     0.0023323615   0.0012581219   21.002316      19.549752      1.4525642     -1.0426706      20042.712    
    930000   0.96076878     0.0023323615  -0.002603682    20.587075      19.160334      1.4267416     -1.3730408      20068.24     
    931000   0.98747781     0.0023323615  -0.00090731563  20.801766      19.335361      1.4664045     -1.1550396      20000.618    
    932000   0.95614231     0.0023323615  -0.00018591293  20.743364      19.323493      1.4198713     -1.0628454      20141.178    
    933000   0.77009854     0.0023323615   0.0013081553   20.508591      19.364995      1.1435963     -1.1115965      20160.827    
    934000   0.97888091     0.0023323615   8.2271436e-05  20.908719      19.455081      1.4536382     -1.0514112      20237.845    
    935000   0.98533736     0.0023323615   0.00021145928  20.755344      19.292118      1.463226      -1.2786795      20326.028    
    936000   0.93944694     0.0023323615   0.0016126745   21.06608       19.671001      1.3950787     -0.97357915     20154.855    
    937000   1.0298647      0.0023323615   0.0034405877   20.968153      19.438803      1.529349      -1.055845       20316.185    
    938000   1.0936915      0.0023323615   0.0011174074   20.9932        19.369068      1.6241318     -1.2115233      20219.679    
    939000   1.0224643      0.0023323615  -0.0016317176   20.681192      19.162832      1.5183596     -1.3943607      20172.55     
    940000   0.80838203     0.0023323615   0.00049262901  20.654472      19.454024      1.2004473     -1.164017       20064.21     
    941000   1.0513217      0.0023323615  -0.0012266337   20.771887      19.210675      1.5612128     -1.3137077      20253.298    
    942000   1.0804252      0.0023323615  -0.0012724647   20.949303      19.344872      1.6044314     -1.1261748      20218.09     
    943000   1.1379364      0.0023323615   0.0036432821   20.90818       19.218344      1.6898355     -1.2689824      20232.044    
    944000   1.1989917      0.0023323615   0.00039715702  21.303181      19.522678      1.7805027     -1.019552       20169.827    
    945000   0.92668972     0.0023323615  -0.0033749954   21.019202      19.643068      1.3761342     -0.94911026     20140.783    
    946000   0.93467362     0.0023323615   0.0014933373   20.890644      19.502654      1.3879903     -0.99880508     20325.114    
    947000   0.91387941     0.0023323615  -0.0049612322   20.812319      19.455208      1.3571109     -0.99437173     20263.939    
    948000   0.95723193     0.0023323615   0.00050233818  20.784846      19.363356      1.4214894     -1.1528297      20328.802    
    949000   1.0363907      0.0023323615  -0.00069594657  21.082685      19.543644      1.5390402     -1.0446909      20213.828    
    950000   1.1005098      0.0023323615   0.0014646724   21.140893      19.506636      1.6342571     -1.0639149      20217.926    
    951000   1.0662464      0.0023323615  -0.0029748533   20.955643      19.372267      1.5833759     -1.2103927      20170.238    
    952000   1.065935       0.0023323615  -0.0012573569   21.102452      19.519539      1.5829134     -0.98623122     20204.396    
    953000   1.0447586      0.0023323615   0.0055220118   20.700122      19.148656      1.5514665     -1.3140672      20266.252    
    954000   0.9885353      0.0023323615   0.0013986522   20.798537      19.330562      1.4679749     -1.1332028      20224.944    
    955000   0.88184622     0.0023323615  -0.001480359    20.580431      19.270889      1.3095416     -1.1844653      20124.081    
    956000   1.0916814      0.0023323615   0.0041376133   20.920901      19.299755      1.6211469     -1.1725404      19690.799    
    957000   1.0434886      0.0023323615   0.0014248279   20.785225      19.235644      1.5495806     -1.2738388      20269.322    
    958000   1.0977399      0.0023323615  -0.0028790989   20.895287      19.265143      1.6301437     -1.333843       20235.043    
    959000   0.93873363     0.0023323615   0.0010968614   20.611762      19.217743      1.3940194     -1.219414       20053.862    
    960000   1.0254715      0.0023323615   0.0033170749   20.717807      19.194981      1.5228251     -1.2635214      20204.052    
    961000   0.97461298     0.0023323615  -0.0018874453   20.782278      19.334978      1.4473003     -1.1261302      20046.282    
    962000   1.0062509      0.0023323615   0.00091342447  21.158185      19.663902      1.4942826     -0.88779362     18718.056    
    963000   1.016141       0.0023323615   0.0069057071   20.973787      19.464818      1.5089694     -1.0722899      18602.872    
    964000   1.0716099      0.0023323615  -0.002809002    20.977318      19.385977      1.5913406     -1.0869298      19788.399    
    965000   1.0611818      0.0023323615  -0.00070769141  20.69297       19.117115      1.5758549     -1.399291       20104.033    
    966000   1.0053221      0.0023323615   0.0031323276   20.841096      19.348193      1.4929033     -1.1749513      19874.425    
    967000   1.0838133      0.0023323615  -0.00069744225  20.914164      19.304701      1.6094627     -1.1628196      20002.566    
    968000   1.0349941      0.0023323615   0.00063309004  20.891436      19.35447       1.5369662     -1.1776642      19923.578    
    969000   0.95458452     0.0023323615   0.0010641419   20.855845      19.438287      1.417558      -1.1340415      20189.459    
    970000   1.0751272      0.0023323615  -0.0049488373   21.093597      19.497033      1.5965639     -1.0800144      20476.409    
    971000   1.1461954      0.0023323615   0.0018409635   20.915633      19.213532      1.7021002     -1.2727272      19827.11     
    972000   1.0808723      0.0023323615  -0.0036135214   21.023651      19.418556      1.6050953     -1.1850124      19985.4      
    973000   0.87823459     0.0023323615   0.0012236886   20.690089      19.385911      1.3041784     -1.0519953      19933.112    
    974000   0.87100341     0.0023323615  -0.00056042397  20.652865      19.359425      1.2934401     -1.176776       20010.273    
    975000   1.0824096      0.0023323615  -0.00038300928  21.038758      19.431379      1.6073783     -1.2638234      20018.95     
    976000   0.96229689     0.0023323615  -0.0037333109   20.816498      19.387487      1.4290109     -1.1596266      19840.514    
    977000   0.98544999     0.0023323615   0.0010246504   20.929657      19.466263      1.4633932     -1.2109178      19778.18     
    978000   1.0076054      0.0023323615   0.0025019715   20.895054      19.39876       1.496294      -1.1528497      19962.768    
    979000   1.0537538      0.0023323615   0.002059438    21.017223      19.452399      1.5648243     -1.1124492      20040.696    
    980000   1.1161204      0.0023323615  -0.002386557    20.997778      19.340339      1.6574388     -1.1461579      19842.454    
    981000   1.0606732      0.0023323615  -0.00067837413  20.979856      19.404756      1.5750998     -1.1429254      20192.547    
    982000   0.86788741     0.0023323615  -0.00096443165  20.721576      19.432763      1.2888128     -1.1420199      20060.226    
    983000   1.0107253      0.0023323615  -0.00055232759  20.796179      19.295252      1.5009271     -1.2310574      20073.29     
    984000   1.0827517      0.0023323615  -0.00019011417  20.765637      19.157751      1.6078863     -1.314311       20017.404    
    985000   1.1137487      0.0023323615  -1.1608003e-05  21.005693      19.351776      1.6539168     -1.2569488      20097.917    
    986000   0.90880427     0.0023323615  -0.0029181172   20.525692      19.176118      1.3495743     -1.2898655      19995.55     
    987000   1.0310556      0.0023323615   0.0047186078   20.985117      19.454         1.5311175     -1.1089132      20348.238    
    988000   1.1184336      0.0023323615   0.0030454374   20.920427      19.259553      1.6608739     -1.2515082      20363.516    
    989000   1.0670227      0.0023323615  -0.00088896366  21.202792      19.618263      1.5845287     -1.0012263      20225.104    
    990000   0.91232897     0.0023323615  -0.00028320051  21.015811      19.661002      1.3548085     -0.89892585     20231.692    
    991000   0.89431262     0.0023323615   0.0028447848   20.525941      19.197887      1.3280542     -1.2599914      20090.76     
    992000   0.90382114     0.0023323615  -0.0024440707   20.638322      19.296148      1.3421744     -1.2702359      20116.671    
    993000   1.1022411      0.0023323615   0.0021428947   20.966342      19.329514      1.636828      -1.2118804      20200.994    
    994000   1.0119163      0.0023323615   0.00085463217  20.782654      19.279959      1.5026957     -1.1952911      20290.666    
    995000   1.2190129      0.0023323615   0.0033182557   21.096502      19.286268      1.8102342     -1.2049605      20042.736    
    996000   1.0403425      0.0023323615   0.001460325    20.838676      19.293768      1.5449086     -1.3075288      20082.712    
    997000   0.99978759     0.0023323615  -2.6662061e-05  20.819578      19.334894      1.4846846     -1.122563       20014.635    
    998000   0.98469189     0.0023323615  -0.0012898753   20.827582      19.365315      1.4622675     -1.2128976      20098.337    
    999000   0.97040634     0.0023323615   0.00064032705  20.912048      19.470994      1.4410534     -1.1913783      20105.208    
   1000000   0.96794628     0.0023323615  -0.002426496    20.864943      19.427543      1.4374002     -1.0808208      20063.509    
Loop time of 52.2382 on 1 procs for 1000000 steps with 100 atoms

Performance: 8269812.203 tau/day, 19143.084 timesteps/s
99.4% CPU use with 1 MPI tasks x 1 OpenMP threads

MPI task timing breakdown:
Section |  min time  |  avg time  |  max time  |%varavg| %total
---------------------------------------------------------------
Pair    | 43.435     | 43.435     | 43.435     |   0.0 | 83.15
Bond    | 1.2357     | 1.2357     | 1.2357     |   0.0 |  2.37
Neigh   | 3.7258     | 3.7258     | 3.7258     |   0.0 |  7.13
Comm    | 1.3569     | 1.3569     | 1.3569     |   0.0 |  2.60
Output  | 0.20589    | 0.20589    | 0.20589    |   0.0 |  0.39
Modify  | 1.9326     | 1.9326     | 1.9326     |   0.0 |  3.70
Other   |            | 0.3466     |            |       |  0.66

Nlocal:            100 ave         100 max         100 min
Histogram: 1 0 0 0 0 0 0 0 0 0
Nghost:            316 ave         316 max         316 min
Histogram: 1 0 0 0 0 0 0 0 0 0
Neighs:           4849 ave        4849 max        4849 min
Histogram: 1 0 0 0 0 0 0 0 0 0

Total # of neighbors = 4849
Ave neighs/atom = 48.49
Ave special neighs/atom = 1.98
Neighbor list builds = 97900
Dangerous builds = 80081

write_data      ${outputfile_assembled} nofix nocoeff
write_data      7_assembled.data nofix nocoeff
System init for write_data ...
Generated 0 of 6 mixed pair_coeff terms from geometric mixing rule

Total wall time: 0:00:54
