ITEM: TIMESTEP
0
ITEM: NUMBER OF ATOMS
100
ITEM: BOX BOUNDS pp pp pp
-5.0980663000000000e+01 4.9019337000000000e+01
-5.4743659000000001e+01 4.5256340999999999e+01
-5.1026881000000003e+01 4.8973118999999997e+01
ITEM: ATOMS id type xu yu zu vx vy vz
1 1 -0.868199 -2.58376 6.65212 -2.1724 2.24354 -1.09058
2 1 -0.986257 -3.47148 7.05002 -0.141214 -0.243281 1.67677
3 1 -1.12124 -4.4003 7.392 1.133 -0.499176 -0.71619
4 1 -1.96198 -4.55815 6.89409 -0.52448 -1.61991 0.157882
5 1 -2.07575 -5.48317 6.62614 -0.31285 0.174288 -1.22966
6 1 -2.47595 -5.06323 5.79863 0.0383236 -0.532916 0.0784166
7 1 -2.64783 -4.12883 5.68985 -0.74384 0.0519329 0.27756
8 1 -2.93606 -4.71913 4.99359 -0.110556 2.38764 -0.811659
9 1 -2.16585 -4.14038 4.83403 0.237074 0.465221 0.319647
10 1 -2.25437 -3.21592 5.01647 -0.651505 -0.928874 -0.713021
11 1 -3.02002 -2.8039 4.71727 -1.46588 0.596308 -0.207154
12 1 -3.01391 -3.5344 4.04122 -0.248366 0.432159 0.165404
13 1 -2.3151 -3.25049 3.35057 -0.651699 -0.167623 -0.877123
14 1 -1.342 -3.4287 3.37348 -0.0092052 -0.109359 -0.387408
15 1 -0.625427 -3.90211 2.87554 0.445942 -0.93196 -0.0155837
16 1 -0.887635 -4.86636 2.88686 0.366997 -0.637255 -0.724977
17 1 -0.813694 -5.67033 2.43878 0.401737 0.478079 -0.131786
18 1 -1.49836 -6.31127 2.09715 0.20671 1.20217 -0.172173
19 1 -0.933702 -7.02524 2.54226 0.232111 0.041113 -1.58871
20 1 -1.49033 -7.69814 2.89881 0.888822 -0.611032 1.47879
21 1 -1.52999 -7.67096 1.93269 0.237074 -0.833715 0.706713
22 1 -2.22648 -7.71663 1.22024 1.53028 -0.37224 -0.311428
23 1 -3.12866 -7.71774 1.25952 -0.513849 -0.723211 1.72567
24 1 -4.02513 -8.26022 1.12968 -0.769328 2.18607 -0.36764
25 1 -4.00193 -8.33314 0.177361 -0.0248282 0.880244 0.116998
26 1 -4.8825 -8.42243 0.645593 -0.20536 -1.86058 0.328069
27 1 -4.63757 -9.35497 0.630986 -0.335735 -1.18416 -1.59308
28 1 -4.84516 -9.02545 -0.260462 -0.32755 0.0819865 0.0329425
29 1 -5.59887 -8.50027 -0.482947 1.23196 -1.30772 -1.00436
30 1 -6.39107 -8.93284 -0.855347 0.831596 0.35893 0.988134
31 1 -6.71633 -7.99138 -0.750049 -1.57222 -1.56415 1.75377
32 1 -7.23835 -7.59367 -1.47864 -0.0822733 -1.22882 0.603539
33 1 -7.15368 -6.69324 -1.92247 -0.118581 0.0978297 0.513736
34 1 -7.91706 -6.24438 -1.46774 -0.0537731 -0.612754 0.0418053
35 1 -8.0347 -5.54787 -2.10006 -0.846843 0.176342 -2.65035
36 1 -8.3652 -4.8796 -2.70324 0.694839 -1.0167 0.938668
37 1 -8.13382 -4.38858 -3.52174 -2.37324 2.31553 -0.022872
38 1 -7.31605 -4.36054 -4.00424 0.374837 0.468364 0.501669
39 1 -6.75716 -4.71972 -4.73852 0.853965 2.04355 0.270909
40 1 -7.60987 -5.02288 -5.05599 -0.915327 -1.25086 0.654481
41 1 -8.27557 -4.42823 -4.52187 -0.626036 0.281768 -0.3801
42 1 -8.83048 -5.18316 -4.32265 0.943397 1.83759 1.25251
43 1 -9.75841 -5.07241 -4.53577 -0.767636 -1.31375 0.64532
44 1 -9.45218 -5.42481 -5.3943 0.0459774 -0.0565116 -0.815725
45 1 -8.87359 -5.39364 -6.19181 -0.551452 1.83212 -0.351534
46 1 -8.92296 -6.21136 -6.70756 1.09967 0.0906074 1.19771
47 1 -8.30184 -6.84066 -7.04284 1.61053 -0.302381 0.470494
48 1 -8.84836 -7.30778 -6.30701 -1.65076 0.340808 -0.66084
49 1 -8.59987 -8.01788 -6.89803 -0.342293 -1.01791 -0.323979
50 1 -9.44949 -8.33759 -6.6979 1.37097 1.28851 0.485692
51 1 -0.863671 -1.71965 7.10235 -0.827855 -0.098262 -0.345511
52 1 -0.363878 -1.54494 6.24997 0.809532 -0.776514 -0.549111
53 1 0.170782 -0.778173 6.31521 1.04493 0.456107 -0.395099
54 1 0.333559 -0.713795 5.35807 -1.97507 -0.520711 -2.04676
55 1 0.4282 -0.0765241 4.63155 1.11189 -0.392073 0.777962
56 1 0.132731 0.781728 4.28903 0.0851056 0.545162 -0.167802
57 1 0.274406 1.14521 3.3672 1.89799 -0.749735 -1.02515
58 1 -0.0138453 1.49129 2.48446 -0.514436 0.0376622 -0.601804
59 1 -0.191262 2.01074 1.69655 0.43378 -1.8178 1.78396
60 1 0.256115 1.34616 1.10701 1.29905 -0.71793 0.121458
61 1 0.708186 1.19166 0.334264 -0.01552 0.0984902 -0.349492
62 1 0.885567 1.05159 -0.652483 0.969345 -0.995531 0.985405
63 1 0.528365 1.95938 -0.766696 0.847406 -0.0916173 -0.284327
64 1 0.403015 2.26971 -1.70303 -0.861803 0.728527 0.955961
65 1 -0.416953 2.15318 -2.14345 -0.338331 -0.293481 1.16529
66 1 -0.408043 1.54261 -2.85477 0.790332 0.435819 0.573128
67 1 -1.06956 0.957938 -2.34807 -2.59319 -1.72024 1.14169
68 1 -1.41138 0.342559 -3.00215 1.34009 0.709188 -0.504534
69 1 -1.07427 -0.582978 -2.93013 -1.44874 -0.244828 0.344318
70 1 -1.45186 -1.16037 -3.52854 -0.0524956 1.17937 -0.370951
71 1 -1.51007 -1.65027 -2.70463 -1.16516 0.235324 -0.612842
72 1 -1.85108 -2.51034 -2.5438 -1.025 -0.384301 -1.10913
73 1 -2.0255 -3.50791 -2.62806 -0.33208 0.354757 -0.317338
74 1 -1.16475 -3.94728 -2.9545 -0.718542 -0.360419 -0.897756
75 1 -0.473969 -3.24949 -2.6996 0.464286 1.4102 1.45495
76 1 -0.264957 -4.2253 -2.61943 0.184563 0.375751 -0.712881
77 1 0.468566 -4.74547 -2.34423 -0.217567 1.64635 -0.959832
78 1 1.31625 -5.00841 -2.79143 -0.0874475 1.00998 1.14892
79 1 1.91326 -5.71715 -2.46743 -0.300217 -2.19885 -0.0747544
80 1 1.45925 -6.14335 -1.72779 -1.53273 -0.766868 2.2535
81 1 1.03776 -6.33499 -0.873142 -2.07358 -0.965604 -0.739025
82 1 1.38036 -7.18543 -0.611869 2.0259 1.08677 -1.38231
83 1 1.77784 -7.60801 0.110792 -0.314317 -0.270945 -0.0829458
84 1 1.85208 -6.92778 0.79072 0.360076 -0.781222 0.634826
85 1 2.75017 -7.15632 0.4625 -0.400313 -0.00855667 -0.318536
86 1 3.23456 -6.45071 0.877561 0.000651761 -2.08274 -0.603375
87 1 2.63515 -6.41323 1.60035 1.02586 0.203915 -0.0327655
88 1 3.4142 -6.1028 2.08051 -2.18597 -2.22811 1.99143
89 1 3.52108 -6.20195 2.97618 0.425917 1.12701 0.610581
90 1 3.54313 -7.02628 3.41516 2.04917 -0.0424273 1.59612
91 1 2.77489 -7.01314 2.87579 0.769228 -0.577185 -0.470797
92 1 2.71146 -7.68342 2.16569 0.513996 0.352587 0.0589882
93 1 1.80299 -7.80828 1.88379 0.116002 -0.222336 -0.701413
94 1 1.15566 -8.52008 1.77898 -0.932907 0.145038 1.08358
95 1 0.458866 -8.80963 1.22059 1.90758 0.357059 -0.108135
96 1 0.824029 -9.44404 1.79496 0.705637 1.44205 -1.66076
97 1 1.67428 -9.91587 1.82169 0.754059 0.728302 1.33314
98 1 2.55918 -9.75543 1.53957 -0.224009 0.901019 0.363445
99 1 2.84651 -10.6499 1.3104 0.73683 0.84752 -0.814562
100 1 3.09181 -10.8311 2.19798 -0.205436 1.34508 0.358442
ITEM: TIMESTEP
1
ITEM: NUMBER OF ATOMS
100
ITEM: BOX BOUNDS pp pp pp
-5.0980663000000000e+01 4.9019337000000000e+01
-5.4743659000000001e+01 4.5256340999999999e+01
-5.1026881000000003e+01 4.8973118999999997e+01
ITEM: ATOMS id type xu yu zu vx vy vz
1 1 -0.879085 -2.57259 6.64682 -2.18452 2.18077 -1.02638
2 1 -0.986988 -3.47285 7.05845 -0.147411 -0.274813 1.67903
3 1 -1.11578 -4.40251 7.38815 1.04416 -0.388818 -0.826493
4 1 -1.96436 -4.5663 6.895 -0.420021 -1.6235 0.213843
5 1 -2.07748 -5.48201 6.61965 -0.376303 0.267894 -1.35974
6 1 -2.4754 -5.06627 5.7997 0.169368 -0.662682 0.32618
7 1 -2.65175 -4.12848 5.69163 -0.81773 0.0836188 0.437961
8 1 -2.93666 -4.70699 4.98917 -0.135294 2.4522 -0.950824
9 1 -2.16458 -4.13835 4.83526 0.28084 0.330335 0.168451
10 1 -2.25706 -3.22068 5.01317 -0.456045 -0.941037 -0.613968
11 1 -3.02793 -2.80085 4.71577 -1.66982 0.608861 -0.377862
12 1 -3.0148 -3.53185 4.04192 -0.106035 0.588712 0.113679
13 1 -2.31843 -3.25153 3.34655 -0.675295 -0.247623 -0.7315
14 1 -1.3421 -3.42934 3.37138 -0.0345014 -0.150223 -0.455938
15 1 -0.623525 -3.90697 2.87563 0.313335 -1.00828 0.051395
16 1 -0.885752 -4.86865 2.88353 0.383714 -0.268562 -0.598425
17 1 -0.811884 -5.6687 2.4377 0.326636 0.158684 -0.307719
18 1 -1.49681 -6.30536 2.09662 0.40705 1.15985 -0.0428181
19 1 -0.932622 -7.02449 2.53406 0.188185 0.244397 -1.68476
20 1 -1.48604 -7.70137 2.90622 0.841727 -0.665076 1.46912
21 1 -1.52909 -7.67518 1.93601 0.127851 -0.857006 0.631822
22 1 -2.21747 -7.71847 1.21889 2.00042 -0.365251 -0.230005
23 1 -3.13293 -7.72171 1.26811 -1.11817 -0.861587 1.70884
24 1 -4.02812 -8.24887 1.12815 -0.433045 2.34775 -0.240589
25 1 -4.00239 -8.32878 0.178056 -0.161826 0.862578 0.158101
26 1 -4.88345 -8.43177 0.646929 -0.172726 -1.86696 0.20642
27 1 -4.63928 -9.36081 0.622897 -0.346695 -1.1621 -1.63109
28 1 -4.84659 -9.02522 -0.26015 -0.228153 -0.00273044 0.0862397
29 1 -5.59302 -8.50676 -0.488085 1.09674 -1.26961 -1.05251
30 1 -6.3869 -8.93061 -0.850301 0.828205 0.520961 1.02486
31 1 -6.72418 -7.99948 -0.741478 -1.56945 -1.66642 1.67335
32 1 -7.23861 -7.59951 -1.47566 -0.0215292 -1.10445 0.589828
33 1 -7.15457 -6.69298 -1.91956 -0.233653 -0.00311994 0.651692
34 1 -7.91705 -6.24773 -1.46757 0.0507065 -0.696979 0.00544588
35 1 -8.03895 -5.54688 -2.11341 -0.830176 0.158859 -2.63545
36 1 -8.36168 -4.88455 -2.69875 0.697549 -0.920451 0.813246
37 1 -8.14583 -4.37711 -3.52135 -2.4088 2.26564 0.173434
38 1 -7.31386 -4.3583 -4.00201 0.474445 0.427891 0.405001
39 1 -6.75304 -4.70939 -4.73694 0.769973 2.07881 0.351133
40 1 -7.61486 -5.02879 -5.05241 -1.05555 -1.10187 0.787351
41 1 -8.27835 -4.42715 -4.52435 -0.466961 0.165465 -0.61397
42 1 -8.82576 -5.17401 -4.31638 0.915284 1.80722 1.25973
43 1 -9.76222 -5.07904 -4.53271 -0.736259 -1.34345 0.574285
44 1 -9.45185 -5.42502 -5.39843 0.0771524 -0.0237582 -0.822125
45 1 -8.8765 -5.38456 -6.1934 -0.610304 1.79528 -0.293538
46 1 -8.9176 -6.2107 -6.70145 1.05552 0.170502 1.2433
47 1 -8.29394 -6.84257 -7.04016 1.53468 -0.45112 0.606556
48 1 -8.85633 -7.30578 -6.31068 -1.53068 0.447966 -0.817595
49 1 -8.60113 -8.02285 -6.89978 -0.125675 -0.943284 -0.37969
50 1 -9.44308 -8.33131 -6.69537 1.15608 1.2089 0.537225
51 1 -0.867612 -1.72021 7.10022 -0.745524 -0.106447 -0.504462
52 1 -0.360228 -1.54917 6.24754 0.660021 -0.901028 -0.41747
53 1 0.176228 -0.775598 6.31313 1.12214 0.556388 -0.451295
54 1 0.323672 -0.716331 5.34789 -1.98265 -0.506931 -2.00274
55 1 0.433716 -0.0784662 4.63549 1.09136 -0.358597 0.777678
56 1 0.133243 0.784498 4.28788 0.125753 0.550049 -0.291486
57 1 0.283753 1.14142 3.36216 1.83769 -0.761686 -0.993051
58 1 -0.0163275 1.49137 2.48172 -0.468642 -0.0312418 -0.452159
59 1 -0.188944 2.00143 1.70527 0.486987 -1.88382 1.66527
60 1 0.261981 1.34296 1.10864 1.04881 -0.563162 0.528156
61 1 0.708669 1.19193 0.331248 0.204335 0.00960201 -0.845587
62 1 0.89025 1.04689 -0.647133 0.902084 -0.878848 1.14413
63 1 0.532643 1.95881 -0.768403 0.867135 -0.143977 -0.390684
64 1 0.399038 2.27329 -1.69778 -0.725346 0.706393 1.13877
65 1 -0.418937 2.15189 -2.13752 -0.46008 -0.223498 1.20311
66 1 -0.404411 1.54428 -2.85191 0.649496 0.222926 0.578823
67 1 -1.0822 0.949622 -2.34261 -2.44305 -1.5805 1.04933
68 1 -1.40458 0.345847 -3.00465 1.36894 0.59249 -0.511987
69 1 -1.08126 -0.583411 -2.92788 -1.34038 0.0798721 0.568647
70 1 -1.45247 -1.155 -3.53095 -0.197433 0.956377 -0.602316
71 1 -1.51578 -1.64881 -2.70774 -1.12348 0.341204 -0.633508
72 1 -1.8564 -2.51303 -2.54934 -1.09839 -0.67306 -1.10484
73 1 -2.02665 -3.50588 -2.62977 -0.12885 0.45038 -0.367516
74 1 -1.16872 -3.94845 -2.95881 -0.856308 -0.0997145 -0.819264
75 1 -0.471891 -3.24314 -2.69242 0.358111 1.11601 1.41443
76 1 -0.26407 -4.22297 -2.62301 0.15369 0.570156 -0.724207
77 1 0.467985 -4.73749 -2.34909 -0.00793113 1.54026 -0.976511
78 1 1.31567 -5.00343 -2.78547 -0.130569 0.967137 1.23824
79 1 1.91159 -5.72801 -2.46782 -0.385401 -2.14315 -0.0726689
80 1 1.45156 -6.14718 -1.71647 -1.52073 -0.751164 2.23795
81 1 1.02742 -6.3397 -0.876975 -2.08073 -0.920046 -0.772046
82 1 1.39029 -7.17983 -0.619175 1.95878 1.13731 -1.52577
83 1 1.7765 -7.60958 0.11083 -0.228461 -0.348761 0.0868557
84 1 1.85409 -6.93177 0.793783 0.439032 -0.815298 0.591388
85 1 2.74789 -7.15641 0.46093 -0.517538 -0.041019 -0.320149
86 1 3.23482 -6.46104 0.874367 0.114087 -2.03546 -0.665154
87 1 2.64014 -6.41218 1.60045 0.9455 0.208108 0.0577021
88 1 3.4031 -6.11385 2.08945 -2.2359 -2.18443 1.57442
89 1 3.52332 -6.19606 2.98002 0.478671 1.20408 0.968523
90 1 3.55365 -7.02685 3.42351 2.12663 -0.160034 1.71023
91 1 2.77845 -7.01616 2.87311 0.688299 -0.62403 -0.571001
92 1 2.71406 -7.68152 2.16613 0.517268 0.397475 0.10643
93 1 1.8035 -7.80945 1.88027 0.094638 -0.246671 -0.704527
94 1 1.15143 -8.5188 1.78459 -0.739968 0.385938 1.1752
95 1 0.467983 -8.80762 1.21957 1.7092 0.46509 -0.337088
96 1 0.827716 -9.43761 1.78696 0.78333 1.08986 -1.51795
97 1 1.67769 -9.9122 1.82843 0.600721 0.737195 1.36451
98 1 2.55832 -9.75095 1.54129 -0.109942 0.887241 0.321559
99 1 2.85009 -10.6456 1.30604 0.696642 0.902092 -0.914406
100 1 3.09087 -10.8245 2.20007 -0.175828 1.32315 0.46678
ITEM: TIMESTEP
2
ITEM: NUMBER OF ATOMS
100
ITEM: BOX BOUNDS pp pp pp
-5.0980663000000000e+01 4.9019337000000000e+01
-5.4743659000000001e+01 4.5256340999999999e+01
-5.1026881000000003e+01 4.8973118999999997e+01
ITEM: ATOMS id type xu yu zu vx vy vz
1 1 -0.890044 -2.56195 6.64185 -2.20078 2.03773 -0.959724
2 1 -0.987732 -3.47422 7.06681 -0.147291 -0.249527 1.65385
3 1 -1.1108 -4.40419 7.38373 0.939644 -0.294063 -0.937084
4 1 -1.96618 -4.57439 6.89623 -0.298597 -1.59318 0.285361
5 1 -2.07951 -5.48049 6.61254 -0.43205 0.318462 -1.47486
6 1 -2.47426 -5.06986 5.80189 0.272344 -0.750603 0.525791
7 1 -2.65601 -4.12799 5.69423 -0.877796 0.103133 0.603498
8 1 -2.93742 -4.69461 4.98408 -0.1706 2.48511 -1.07714
9 1 -2.16304 -4.13708 4.83571 0.342762 0.166998 0.0153172
10 1 -2.25893 -3.22533 5.01033 -0.319734 -0.881962 -0.528732
11 1 -3.03672 -2.79781 4.71349 -1.81851 0.596242 -0.523387
12 1 -3.01497 -3.52851 4.04235 0.0344416 0.740954 0.0579824
13 1 -2.32185 -3.25297 3.34326 -0.688075 -0.328315 -0.584905
14 1 -1.34234 -3.4302 3.36893 -0.0649951 -0.192985 -0.527644
15 1 -0.622294 -3.91219 2.87606 0.178956 -1.06986 0.1206
16 1 -0.883798 -4.86904 2.88087 0.395672 0.10885 -0.46033
17 1 -0.810428 -5.66874 2.4357 0.261673 -0.172254 -0.490369
18 1 -1.49429 -6.29967 2.09672 0.59764 1.10988 0.0798034
19 1 -0.93182 -7.0228 2.52542 0.12176 0.418147 -1.76146
20 1 -1.48192 -7.70479 2.9135 0.818882 -0.688297 1.42525
21 1 -1.52872 -7.67953 1.93901 0.0269043 -0.881523 0.58133
22 1 -2.20648 -7.72028 1.21794 2.31485 -0.358832 -0.150768
23 1 -3.13984 -7.72635 1.27661 -1.56067 -0.988036 1.68683
24 1 -4.02946 -8.23674 1.12728 -0.115344 2.49998 -0.108417
25 1 -4.00354 -8.32452 0.178942 -0.302339 0.841442 0.194132
26 1 -4.88423 -8.4411 0.647657 -0.137051 -1.85509 0.0876231
27 1 -4.64103 -9.36659 0.614675 -0.347657 -1.16534 -1.6448
28 1 -4.84744 -9.02548 -0.2596 -0.0942279 -0.107299 0.125978
29 1 -5.58791 -8.51296 -0.493472 0.944916 -1.19085 -1.10286
30 1 -6.38279 -8.92763 -0.845099 0.805481 0.652247 1.04893
31 1 -6.73203 -8.00805 -0.733315 -1.57242 -1.74898 1.59079
32 1 -7.23856 -7.60471 -1.47274 0.0414383 -0.970813 0.574761
33 1 -7.15602 -6.69327 -1.91595 -0.339223 -0.121617 0.788233
34 1 -7.91656 -6.25135 -1.46769 0.137049 -0.729449 -0.0663253
35 1 -8.043 -5.54628 -2.12641 -0.76759 0.0164909 -2.51019
36 1 -8.35822 -4.8888 -2.69511 0.665701 -0.730471 0.598713
37 1 -8.15791 -4.36593 -3.52 -2.4 2.20327 0.356015
38 1 -7.31131 -4.35626 -4.00019 0.518605 0.389271 0.340245
39 1 -6.74946 -4.69894 -4.73501 0.641752 2.09271 0.409556
40 1 -7.62043 -5.0339 -5.04812 -1.14543 -0.935049 0.934131
41 1 -8.28024 -4.42657 -4.528 -0.278575 0.0870235 -0.84901
42 1 -8.82133 -5.16509 -4.31006 0.827105 1.74179 1.27086
43 1 -9.76577 -5.08585 -4.53003 -0.666436 -1.38194 0.493872
44 1 -9.45141 -5.42505 -5.40252 0.0938088 0.0151388 -0.800343
45 1 -8.87969 -5.37568 -6.19474 -0.660911 1.74862 -0.252162
46 1 -8.91241 -6.20966 -6.69513 1.02932 0.241885 1.28462
47 1 -8.28649 -6.84517 -7.03678 1.43621 -0.581947 0.752454
48 1 -8.86367 -7.3033 -6.31518 -1.3985 0.534812 -0.991366
49 1 -8.60113 -8.02732 -6.90182 0.152104 -0.82555 -0.437058
50 1 -9.43793 -8.3255 -6.69253 0.87271 1.10667 0.60718
51 1 -0.871127 -1.72072 7.09731 -0.658382 -0.0782931 -0.65001
52 1 -0.357278 -1.55395 6.2458 0.531951 -0.989047 -0.277168
53 1 0.182003 -0.772609 6.3107 1.17514 0.620472 -0.530142
54 1 0.313733 -0.718864 5.33805 -1.9962 -0.519313 -1.91075
55 1 0.439114 -0.08011 4.63933 1.06597 -0.274184 0.738348
56 1 0.133989 0.787228 4.28612 0.177771 0.53048 -0.410654
57 1 0.292783 1.13759 3.35727 1.77143 -0.771656 -0.961063
58 1 -0.0185317 1.49098 2.47993 -0.403022 -0.151304 -0.222735
59 1 -0.186392 1.9919 1.71321 0.52488 -1.90146 1.47161
60 1 0.266603 1.34053 1.11229 0.816556 -0.415589 0.908973
61 1 0.71023 1.19176 0.325808 0.401873 -0.0698114 -1.29079
62 1 0.894588 1.0428 -0.641042 0.832925 -0.750516 1.2765
63 1 0.537036 1.95794 -0.770602 0.893452 -0.214974 -0.478936
64 1 0.395762 2.27678 -1.69164 -0.585891 0.690008 1.30844
65 1 -0.421553 2.15094 -2.13142 -0.586637 -0.159682 1.23374
66 1 -0.401548 1.54484 -2.84898 0.485395 -0.00508134 0.605317
67 1 -1.09399 0.942133 -2.33758 -2.255 -1.39346 0.971924
68 1 -1.39769 0.348484 -3.00727 1.38056 0.453346 -0.550155
69 1 -1.08768 -0.582179 -2.92444 -1.22582 0.405914 0.803428
70 1 -1.45383 -1.15081 -3.53456 -0.345903 0.722807 -0.83707
71 1 -1.52131 -1.64686 -2.71096 -1.09099 0.427208 -0.656603
72 1 -1.86207 -2.51707 -2.55485 -1.15839 -0.920291 -1.10337
73 1 -2.02679 -3.50341 -2.63174 0.0678829 0.529243 -0.419291
74 1 -1.17331 -3.94828 -2.9627 -0.966929 0.174937 -0.72994
75 1 -0.470388 -3.23833 -2.68546 0.235659 0.799594 1.36418
76 1 -0.263421 -4.2196 -2.62668 0.094579 0.785857 -0.744416
77 1 0.468487 -4.73007 -2.35399 0.208845 1.42436 -0.977791
78 1 1.31495 -4.99874 -2.77905 -0.144179 0.898549 1.32764
79 1 1.90941 -5.73858 -2.46816 -0.503482 -2.0797 -0.0515908
80 1 1.44404 -6.15086 -1.70541 -1.46636 -0.70947 2.14425
81 1 1.01696 -6.34419 -0.880863 -2.12013 -0.874717 -0.75747
82 1 1.39995 -7.17405 -0.627127 1.91663 1.15935 -1.63601
83 1 1.77556 -7.61149 0.11166 -0.161005 -0.408306 0.228335
84 1 1.85647 -6.93593 0.796633 0.504707 -0.847167 0.550897
85 1 2.745 -7.15673 0.459298 -0.642949 -0.105902 -0.3437
86 1 3.2357 -6.47107 0.87091 0.24512 -1.9604 -0.705966
87 1 2.6446 -6.41115 1.60093 0.814096 0.192301 0.109015
88 1 3.39184 -6.12464 2.09625 -2.24181 -2.12471 1.16298
89 1 3.52586 -6.18991 2.98586 0.541093 1.23892 1.38063
90 1 3.5644 -7.02788 3.43226 2.14582 -0.231264 1.75967
91 1 2.78177 -7.01938 2.87008 0.668227 -0.652955 -0.612576
92 1 2.71663 -7.67944 2.16675 0.502616 0.423069 0.130786
93 1 1.80393 -7.81075 1.87674 0.0908043 -0.26716 -0.701987
94 1 1.14826 -8.51622 1.79073 -0.520401 0.654674 1.29036
95 1 0.475958 -8.80498 1.21722 1.46362 0.607839 -0.627163
96 1 0.831862 -9.43314 1.77979 0.882764 0.672167 -1.3371
97 1 1.68029 -9.9085 1.83534 0.435481 0.745606 1.39882
98 1 2.55808 -9.74656 1.54279 0.0172862 0.864873 0.272762
99 1 2.85347 -10.6409 1.30125 0.661521 0.960862 -0.981482
100 1 3.09006 -10.8179 2.20264 -0.154878 1.30755 0.545371
ITEM: TIMESTEP
3
ITEM: NUMBER OF ATOMS
100
ITEM: BOX BOUNDS pp pp pp
-5.0980663000000000e+01 4.9019337000000000e+01
-5.4743659000000001e+01 4.5256340999999999e+01
-5.1026881000000003e+01 4.8973118999999997e+01
ITEM: ATOMS id type xu yu zu vx vy vz
1 1 -0.901093 -2.55222 6.63722 -2.2199 1.82103 -0.896118
2 1 -0.988461 -3.47534 7.07499 -0.142879 -0.174899 1.60454
3 1 -1.10638 -4.40545 7.37877 0.823238 -0.215924 -1.0453
4 1 -1.96735 -4.58223 6.89786 -0.163805 -1.52884 0.37096
5 1 -2.0818 -5.47883 6.60491 -0.476049 0.321077 -1.56748
6 1 -2.47268 -5.07378 5.80496 0.343071 -0.790306 0.669515
7 1 -2.66053 -4.12745 5.69766 -0.923442 0.104685 0.766845
8 1 -2.93837 -4.68214 4.97839 -0.216956 2.48945 -1.18714
9 1 -2.16115 -4.13668 4.83541 0.422415 -0.0188048 -0.135568
10 1 -2.26026 -3.2295 5.00788 -0.243885 -0.755392 -0.458429
11 1 -3.04611 -2.79489 4.71054 -1.91034 0.558885 -0.641862
12 1 -3.01445 -3.52444 4.0425 0.170698 0.885726 -0.00110705
13 1 -2.32531 -3.25481 3.3407 -0.6885 -0.408421 -0.439903
14 1 -1.34275 -3.43127 3.3661 -0.101461 -0.236887 -0.601214
15 1 -0.621735 -3.91767 2.87684 0.0465951 -1.10959 0.190956
16 1 -0.881796 -4.86757 2.87892 0.403551 0.457486 -0.32729
17 1 -0.809267 -5.67043 2.4328 0.20989 -0.479899 -0.660212
18 1 -1.49084 -6.29426 2.09742 0.769739 1.05043 0.190599
19 1 -0.931404 -7.02031 2.51644 0.0359993 0.558601 -1.81591
20 1 -1.47785 -7.70825 2.92048 0.819503 -0.680806 1.34678
21 1 -1.52882 -7.684 1.94183 -0.0608932 -0.906699 0.559762
22 1 -2.19432 -7.72206 1.21738 2.47586 -0.353854 -0.0762138
23 1 -3.14854 -7.73159 1.28498 -1.83934 -1.09757 1.6591
24 1 -4.02928 -8.22387 1.12707 0.170805 2.63706 0.0216376
25 1 -4.00541 -8.32037 0.179998 -0.444047 0.817211 0.226697
26 1 -4.88482 -8.45032 0.647805 -0.0965216 -1.82353 -0.0238978
27 1 -4.64276 -9.37246 0.606449 -0.337493 -1.19629 -1.63033
28 1 -4.84754 -9.0263 -0.258891 0.0661864 -0.224704 0.146218
29 1 -5.58357 -8.51867 -0.499114 0.788795 -1.07433 -1.15236
30 1 -6.37885 -8.92409 -0.839811 0.760116 0.746843 1.05802
31 1 -6.7399 -8.01697 -0.72557 -1.5832 -1.80778 1.5065
32 1 -7.2382 -7.60922 -1.46991 0.106195 -0.831978 0.560559
33 1 -7.15796 -6.6942 -1.91167 -0.431375 -0.25566 0.919435
34 1 -7.91568 -6.25502 -1.46823 0.203243 -0.718656 -0.162995
35 1 -8.04662 -5.54671 -2.13851 -0.658233 -0.247923 -2.27962
36 1 -8.35502 -4.89186 -2.69277 0.594849 -0.442775 0.298066
37 1 -8.16983 -4.35508 -3.51779 -2.34865 2.13043 0.518153
38 1 -7.30867 -4.35441 -3.99861 0.509188 0.354779 0.307241
39 1 -6.74662 -4.68846 -4.73284 0.479891 2.08616 0.447123
40 1 -7.62632 -5.03814 -5.04307 -1.19015 -0.75551 1.08844
41 1 -8.28113 -4.42628 -4.53284 -0.0653957 0.0479966 -1.08019
42 1 -8.81749 -5.15659 -4.30367 0.684427 1.64171 1.28757
43 1 -9.76888 -5.09286 -4.52777 -0.563415 -1.4264 0.405896
44 1 -9.45091 -5.42487 -5.40643 0.0959967 0.0584137 -0.751815
45 1 -8.88311 -5.36707 -6.19592 -0.702159 1.69381 -0.227607
46 1 -8.9073 -6.20828 -6.68861 1.02048 0.303762 1.32069
47 1 -8.27958 -6.84839 -7.03264 1.31779 -0.693227 0.905059
48 1 -8.87032 -7.30043 -6.32059 -1.25703 0.601389 -1.17702
49 1 -8.59961 -8.0311 -6.90415 0.470399 -0.675448 -0.493783
50 1 -9.43435 -8.32024 -6.68929 0.541939 0.990537 0.691184
51 1 -0.874196 -1.72099 7.09372 -0.568249 -0.0123147 -0.77591
52 1 -0.354909 -1.55907 6.24477 0.428381 -1.03848 -0.132415
53 1 0.18798 -0.769394 6.30783 1.20235 0.646773 -0.628476
54 1 0.30371 -0.721525 5.32878 -2.01563 -0.556452 -1.77624
55 1 0.444376 -0.081208 4.64287 1.03783 -0.143472 0.663408
56 1 0.135021 0.789803 4.28377 0.239729 0.489392 -0.524699
57 1 0.301467 1.13371 3.35255 1.70059 -0.780221 -0.927696
58 1 -0.0203577 1.48986 2.4795 -0.318427 -0.322845 0.0866417
59 1 -0.183695 1.98242 1.71999 0.543141 -1.86337 1.2051
60 1 0.270146 1.33881 1.11773 0.626461 -0.287423 1.22148
61 1 0.712688 1.19123 0.31834 0.554257 -0.130957 -1.63567
62 1 0.898579 1.03938 -0.634368 0.766038 -0.616305 1.37004
63 1 0.541577 1.95666 -0.773192 0.926007 -0.302908 -0.544651
64 1 0.393179 2.28019 -1.68469 -0.453211 0.679716 1.45571
65 1 -0.424803 2.15029 -2.12518 -0.709011 -0.104641 1.25683
66 1 -0.399557 1.54423 -2.84586 0.303301 -0.238979 0.653273
67 1 -1.10475 0.935687 -2.33289 -2.03778 -1.16827 0.910975
68 1 -1.39078 0.35038 -3.01015 1.37642 0.301849 -0.616616
69 1 -1.09352 -0.579352 -2.91984 -1.11933 0.702636 1.02267
70 1 -1.45592 -1.14778 -3.53932 -0.481993 0.503164 -1.04874
71 1 -1.52669 -1.64454 -2.7143 -1.07053 0.485622 -0.680926
72 1 -1.86799 -2.52223 -2.56037 -1.20097 -1.11167 -1.10557
73 1 -2.02597 -3.50059 -2.63397 0.252994 0.586911 -0.471397
74 1 -1.17839 -3.9467 -2.96611 -1.05086 0.456465 -0.632899
75 1 -0.469534 -3.23515 -2.67878 0.0999452 0.472828 1.30525
76 1 -0.263124 -4.21512 -2.63046 0.0193229 1.00839 -0.768988
77 1 0.470073 -4.72324 -2.35887 0.417556 1.30768 -0.965828
78 1 1.31423 -4.99445 -2.77219 -0.126885 0.805718 1.4132
79 1 1.90656 -5.74881 -2.46834 -0.648549 -2.00842 -0.0137669
80 1 1.4369 -6.15427 -1.69503 -1.3689 -0.64343 1.97259
81 1 1.00621 -6.34845 -0.88455 -2.19484 -0.833435 -0.690464
82 1 1.40946 -7.16824 -0.635535 1.90107 1.15106 -1.70723
83 1 1.77489 -7.61366 0.113113 -0.114176 -0.447117 0.333181
84 1 1.85914 -6.94025 0.799292 0.55362 -0.874316 0.516666
85 1 2.74146 -7.15746 0.457493 -0.771038 -0.200099 -0.388683
86 1 3.23727 -6.48065 0.867308 0.386797 -1.86072 -0.721321
87 1 2.64828 -6.41026 1.60154 0.625068 0.152142 0.104514
88 1 3.38068 -6.1351 2.10108 -2.18461 -2.04996 0.819341
89 1 3.52873 -6.18367 2.99383 0.607086 1.24343 1.79147
90 1 3.5751 -7.02917 3.44111 2.11396 -0.26304 1.7525
91 1 2.78514 -7.02269 2.86698 0.700824 -0.661694 -0.597332
92 1 2.71909 -7.67729 2.16743 0.470392 0.426689 0.129199
93 1 1.8044 -7.81212 1.87325 0.109264 -0.277983 -0.693246
94 1 1.14623 -8.51225 1.79749 -0.301473 0.926933 1.41469
95 1 0.482619 -8.80154 1.2133 1.2011 0.770889 -0.944417
96 1 0.836544 -9.43089 1.77359 0.988187 0.226064 -1.13892
97 1 1.68205 -9.90475 1.84242 0.274856 0.751104 1.4336
98 1 2.5585 -9.7423 1.54402 0.147685 0.834691 0.220556
99 1 2.8567 -10.6359 1.29622 0.632543 1.02103 -1.01355
100 1 3.08932 -10.8114 2.20553 -0.142885 1.29856 0.591447
ITEM: TIMESTEP
4
ITEM: NUMBER OF ATOMS
100
ITEM: BOX BOUNDS pp pp pp
-5.0980663000000000e+01 4.9019337000000000e+01
-5.4743659000000001e+01 4.5256340999999999e+01
-5.1026881000000003e+01 4.8973118999999997e+01
ITEM: ATOMS id type xu yu zu vx vy vz
1 1 -0.912243 -2.54374 6.63289 -2.2411 1.53885 -0.839004
2 1 -0.98916 -3.47597 7.08286 -0.135854 -0.0582346 1.53444
3 1 -1.10257 -4.40635 7.37328 0.698931 -0.154249 -1.14901
4 1 -1.96782 -4.58967 6.89994 -0.0195255 -1.43308 0.468527
5 1 -2.08427 -5.47728 6.59687 -0.503434 0.272861 -1.62823
6 1 -2.47083 -5.07776 5.80859 0.378022 -0.777755 0.750294
7 1 -2.66524 -4.12695 5.7019 -0.955141 0.0842959 0.920633
8 1 -2.93959 -4.66971 4.97221 -0.275029 2.46991 -1.27825
9 1 -2.15882 -4.13726 4.83436 0.518752 -0.216228 -0.279959
10 1 -2.26137 -3.23289 5.00575 -0.223341 -0.573899 -0.403005
11 1 -3.05582 -2.79222 4.70707 -1.94966 0.500689 -0.733528
12 1 -3.01327 -3.51966 4.04234 0.300536 1.01991 -0.0629303
13 1 -2.32874 -3.25705 3.33886 -0.675251 -0.486688 -0.299147
14 1 -1.34336 -3.43257 3.36291 -0.144452 -0.28118 -0.675332
15 1 -0.621828 -3.92328 2.87797 -0.0797343 -1.11955 0.261464
16 1 -0.879763 -4.86447 2.8776 0.407353 0.742358 -0.213989
17 1 -0.808329 -5.67354 2.4291 0.17552 -0.73223 -0.799427
18 1 -1.48659 -6.28917 2.09863 0.913858 0.979175 0.284353
19 1 -0.93146 -7.01721 2.50726 -0.0642391 0.663935 -1.84657
20 1 -1.47372 -7.7116 2.92697 0.841189 -0.644716 1.2357
21 1 -1.52932 -7.68859 1.94461 -0.131968 -0.932082 0.569585
22 1 -2.18172 -7.72382 1.21718 2.50439 -0.351062 -0.00985291
23 1 -3.15824 -7.73733 1.2932 -1.96834 -1.18478 1.6275
24 1 -4.02775 -8.21037 1.1275 0.412387 2.75269 0.14221
25 1 -4.00798 -8.31634 0.181209 -0.584659 0.790485 0.257682
26 1 -4.88519 -8.45934 0.647418 -0.0502183 -1.77213 -0.124567
27 1 -4.64441 -9.37856 0.598372 -0.315518 -1.2562 -1.58401
28 1 -4.84678 -9.02772 -0.258137 0.241267 -0.345293 0.139821
29 1 -5.58002 -8.52371 -0.504996 0.644583 -0.925698 -1.19663
30 1 -6.37519 -8.92017 -0.834519 0.68898 0.799209 1.05002
31 1 -6.74786 -8.02612 -0.71825 -1.60392 -1.83909 1.42101
32 1 -7.2375 -7.61303 -1.46714 0.172219 -0.691768 0.549139
33 1 -7.16033 -6.69583 -1.90676 -0.50627 -0.403414 1.04159
34 1 -7.91452 -6.25854 -1.46932 0.247492 -0.673179 -0.273606
35 1 -8.04958 -5.54876 -2.14921 -0.50954 -0.614792 -1.96356
36 1 -8.35227 -4.89323 -2.69213 0.489085 -0.0705396 -0.0712832
37 1 -8.1814 -4.34462 -3.51482 -2.25858 2.04979 0.654655
38 1 -7.30622 -4.35271 -3.99711 0.45035 0.326164 0.304622
39 1 -6.74466 -4.67807 -4.73054 0.293901 2.06056 0.46492
40 1 -7.63233 -5.04145 -5.03723 -1.19406 -0.568816 1.24422
41 1 -8.2809 -4.42609 -4.53881 0.164358 0.0454636 -1.30202
42 1 -8.81449 -5.14867 -4.29718 0.496939 1.5124 1.31029
43 1 -9.77141 -5.10011 -4.52597 -0.433452 -1.47417 0.31236
44 1 -9.45045 -5.42446 -5.41004 0.0844166 0.104276 -0.678977
45 1 -8.88671 -5.35875 -6.19702 -0.733459 1.63257 -0.219476
46 1 -8.9022 -6.20662 -6.68192 1.02761 0.355872 1.3511
47 1 -8.27331 -6.8521 -7.02773 1.18329 -0.784116 1.06068
48 1 -8.87624 -7.29728 -6.32695 -1.10944 0.64803 -1.36921
49 1 -8.59642 -8.03407 -6.90676 0.797599 -0.507084 -0.544352
50 1 -9.43251 -8.31559 -6.68561 0.195896 0.87235 0.78149
51 1 -0.876809 -1.72084 7.08955 -0.47673 0.0903223 -0.878003
52 1 -0.352994 -1.56433 6.24447 0.350294 -1.05024 0.0125925
53 1 0.194027 -0.766141 6.30442 1.20418 0.636597 -0.742168
54 1 0.293577 -0.724429 5.32028 -2.04014 -0.613875 -1.60839
55 1 0.449492 -0.0815448 4.64596 1.00846 0.0253004 0.559708
56 1 0.136386 0.792122 4.28087 0.309936 0.430339 -0.633384
57 1 0.309789 1.12979 3.348 1.62713 -0.788617 -0.890162
58 1 -0.021716 1.48775 2.4808 -0.218829 -0.537999 0.463605
59 1 -0.18096 1.97327 1.72526 0.540113 -1.7702 0.879106
60 1 0.272868 1.33766 1.12451 0.491461 -0.186757 1.4415
61 1 0.715772 1.19045 0.309451 0.649228 -0.168259 -1.84665
62 1 0.902248 1.03664 -0.627341 0.706118 -0.482502 1.41009
63 1 0.546296 1.95491 -0.776049 0.964556 -0.406203 -0.583618
64 1 0.39123 2.28358 -1.67708 -0.336404 0.675977 1.57185
65 1 -0.428643 2.1499 -2.11885 -0.818903 -0.0600652 1.2727
66 1 -0.398515 1.54245 -2.84245 0.107369 -0.471448 0.723339
67 1 -1.11437 0.930451 -2.32847 -1.80007 -0.91569 0.863339
68 1 -1.38392 0.351503 -3.01344 1.35906 0.151162 -0.705602
69 1 -1.09887 -0.575152 -2.91422 -1.03157 0.94384 1.2048
70 1 -1.45865 -1.14578 -3.54505 -0.593399 0.317048 -1.21505
71 1 -1.53201 -1.642 -2.71777 -1.06333 0.512728 -0.706088
72 1 -1.87408 -2.52819 -2.56591 -1.22388 -1.23647 -1.11149
73 1 -2.02426 -3.49754 -2.63645 0.421313 0.618684 -0.522448
74 1 -1.18382 -3.94371 -2.96903 -1.10808 0.738363 -0.531441
75 1 -0.469388 -3.2336 -2.67241 -0.0468001 0.147412 1.23881
76 1 -0.263227 -4.20952 -2.63437 -0.0582015 1.22201 -0.793009
77 1 0.472663 -4.71699 -2.36365 0.601574 1.20007 -0.943318
78 1 1.31368 -4.99068 -2.76492 -0.0770216 0.690071 1.49134
79 1 1.90292 -5.75866 -2.46829 -0.814415 -1.92919 0.0376445
80 1 1.43035 -6.1573 -1.68569 -1.23068 -0.555974 1.72913
81 1 0.995008 -6.35252 -0.887767 -2.30443 -0.800158 -0.57105
82 1 1.41896 -7.16254 -0.644199 1.91036 1.11463 -1.73857
83 1 1.77441 -7.61597 0.114992 -0.088122 -0.465295 0.397691
84 1 1.86201 -6.94468 0.8018 0.582325 -0.894563 0.491793
85 1 2.73729 -7.15873 0.455412 -0.89359 -0.317291 -0.452612
86 1 3.23957 -6.48968 0.863696 0.531009 -1.74242 -0.709845
87 1 2.65085 -6.40963 1.60197 0.372526 0.0841071 0.0298379
88 1 3.37 -6.14514 2.10444 -2.04596 -1.95868 0.596365
89 1 3.53193 -6.17747 3.00378 0.669451 1.22713 2.15332
90 1 3.58554 -7.03052 3.44979 2.03977 -0.262976 1.69849