ITEM: TIMESTEP
0
ITEM: NUMBER OF ATOMS
100
ITEM: BOX BOUNDS pp pp pp
-5.0980663000000000e+01 4.9019337000000000e+01
-5.4743659000000001e+01 4.5256340999999999e+01
-5.1026881000000003e+01 4.8973118999999997e+01
ITEM: ATOMS id type xu yu zu vx vy vz
49 1 -8.59987 -8.01788 -6.89803 -0.342293 -1.01791 -0.323979
47 1 -8.30184 -6.84066 -7.04284 1.61053 -0.302381 0.470494
50 1 -9.44949 -8.33759 -6.6979 1.37097 1.28851 0.485692
48 1 -8.84836 -7.30778 -6.30701 -1.65076 0.340808 -0.66084
46 1 -8.92296 -6.21136 -6.70756 1.09967 0.0906074 1.19771
45 1 -8.87359 -5.39364 -6.19181 -0.551452 1.83212 -0.351534
44 1 -9.45218 -5.42481 -5.3943 0.0459774 -0.0565116 -0.815725
40 1 -7.60987 -5.02288 -5.05599 -0.915327 -1.25086 0.654481
39 1 -6.75716 -4.71972 -4.73852 0.853965 2.04355 0.270909
43 1 -9.75841 -5.07241 -4.53577 -0.767636 -1.31375 0.64532
42 1 -8.83048 -5.18316 -4.32265 0.943397 1.83759 1.25251
41 1 -8.27557 -4.42823 -4.52187 -0.626036 0.281768 -0.3801
38 1 -7.31605 -4.36054 -4.00424 0.374837 0.468364 0.501669
37 1 -8.13382 -4.38858 -3.52174 -2.37324 2.31553 -0.022872
70 1 -1.45186 -1.16037 -3.52854 -0.0524956 1.17937 -0.370951
79 1 1.91326 -5.71715 -2.46743 -0.300217 -2.19885 -0.0747544
36 1 -8.3652 -4.8796 -2.70324 0.694839 -1.0167 0.938668
78 1 1.31625 -5.00841 -2.79143 -0.0874475 1.00998 1.14892
76 1 -0.264957 -4.2253 -2.61943 0.184563 0.375751 -0.712881
73 1 -2.0255 -3.50791 -2.62806 -0.33208 0.354757 -0.317338
74 1 -1.16475 -3.94728 -2.9545 -0.718542 -0.360419 -0.897756
75 1 -0.473969 -3.24949 -2.6996 0.464286 1.4102 1.45495
72 1 -1.85108 -2.51034 -2.5438 -1.025 -0.384301 -1.10913
71 1 -1.51007 -1.65027 -2.70463 -1.16516 0.235324 -0.612842
69 1 -1.07427 -0.582978 -2.93013 -1.44874 -0.244828 0.344318
68 1 -1.41138 0.342559 -3.00215 1.34009 0.709188 -0.504534
66 1 -0.408043 1.54261 -2.85477 0.790332 0.435819 0.573128
33 1 -7.15368 -6.69324 -1.92247 -0.118581 0.0978297 0.513736
35 1 -8.0347 -5.54787 -2.10006 -0.846843 0.176342 -2.65035
77 1 0.468566 -4.74547 -2.34423 -0.217567 1.64635 -0.959832
67 1 -1.06956 0.957938 -2.34807 -2.59319 -1.72024 1.14169
65 1 -0.416953 2.15318 -2.14345 -0.338331 -0.293481 1.16529
32 1 -7.23835 -7.59367 -1.47864 -0.0822733 -1.22882 0.603539
34 1 -7.91706 -6.24438 -1.46774 -0.0537731 -0.612754 0.0418053
80 1 1.45925 -6.14335 -1.72779 -1.53273 -0.766868 2.2535
64 1 0.403015 2.26971 -1.70303 -0.861803 0.728527 0.955961
30 1 -6.39107 -8.93284 -0.855347 0.831596 0.35893 0.988134
29 1 -5.59887 -8.50027 -0.482947 1.23196 -1.30772 -1.00436
31 1 -6.71633 -7.99138 -0.750049 -1.57222 -1.56415 1.75377
82 1 1.38036 -7.18543 -0.611869 2.0259 1.08677 -1.38231
81 1 1.03776 -6.33499 -0.873142 -2.07358 -0.965604 -0.739025
62 1 0.885567 1.05159 -0.652483 0.969345 -0.995531 0.985405
63 1 0.528365 1.95938 -0.766696 0.847406 -0.0916173 -0.284327
28 1 -4.84516 -9.02545 -0.260462 -0.32755 0.0819865 0.0329425
25 1 -4.00193 -8.33314 0.177361 -0.0248282 0.880244 0.116998
83 1 1.77784 -7.60801 0.110792 -0.314317 -0.270945 -0.0829458
61 1 0.708186 1.19166 0.334264 -0.01552 0.0984902 -0.349492
27 1 -4.63757 -9.35497 0.630986 -0.335735 -1.18416 -1.59308
26 1 -4.8825 -8.42243 0.645593 -0.20536 -1.86058 0.328069
84 1 1.85208 -6.92778 0.79072 0.360076 -0.781222 0.634826
85 1 2.75017 -7.15632 0.4625 -0.400313 -0.00855667 -0.318536
86 1 3.23456 -6.45071 0.877561 0.000651761 -2.08274 -0.603375
60 1 0.256115 1.34616 1.10701 1.29905 -0.71793 0.121458
99 1 2.84651 -10.6499 1.3104 0.73683 0.84752 -0.814562
97 1 1.67428 -9.91587 1.82169 0.754059 0.728302 1.33314
98 1 2.55918 -9.75543 1.53957 -0.224009 0.901019 0.363445
96 1 0.824029 -9.44404 1.79496 0.705637 1.44205 -1.66076
94 1 1.15566 -8.52008 1.77898 -0.932907 0.145038 1.08358
95 1 0.458866 -8.80963 1.22059 1.90758 0.357059 -0.108135
24 1 -4.02513 -8.26022 1.12968 -0.769328 2.18607 -0.36764
23 1 -3.12866 -7.71774 1.25952 -0.513849 -0.723211 1.72567
22 1 -2.22648 -7.71663 1.22024 1.53028 -0.37224 -0.311428
87 1 2.63515 -6.41323 1.60035 1.02586 0.203915 -0.0327655
59 1 -0.191262 2.01074 1.69655 0.43378 -1.8178 1.78396
100 1 3.09181 -10.8311 2.19798 -0.205436 1.34508 0.358442
21 1 -1.52999 -7.67096 1.93269 0.237074 -0.833715 0.706713
93 1 1.80299 -7.80828 1.88379 0.116002 -0.222336 -0.701413
92 1 2.71146 -7.68342 2.16569 0.513996 0.352587 0.0589882
19 1 -0.933702 -7.02524 2.54226 0.232111 0.041113 -1.58871
18 1 -1.49836 -6.31127 2.09715 0.20671 1.20217 -0.172173
17 1 -0.813694 -5.67033 2.43878 0.401737 0.478079 -0.131786
88 1 3.4142 -6.1028 2.08051 -2.18597 -2.22811 1.99143
58 1 -0.0138453 1.49129 2.48446 -0.514436 0.0376622 -0.601804
20 1 -1.49033 -7.69814 2.89881 0.888822 -0.611032 1.47879
91 1 2.77489 -7.01314 2.87579 0.769228 -0.577185 -0.470797
89 1 3.52108 -6.20195 2.97618 0.425917 1.12701 0.610581
16 1 -0.887635 -4.86636 2.88686 0.366997 -0.637255 -0.724977
15 1 -0.625427 -3.90211 2.87554 0.445942 -0.93196 -0.0155837
90 1 3.54313 -7.02628 3.41516 2.04917 -0.0424273 1.59612
14 1 -1.342 -3.4287 3.37348 -0.0092052 -0.109359 -0.387408
13 1 -2.3151 -3.25049 3.35057 -0.651699 -0.167623 -0.877123
57 1 0.274406 1.14521 3.3672 1.89799 -0.749735 -1.02515
12 1 -3.01391 -3.5344 4.04122 -0.248366 0.432159 0.165404
55 1 0.4282 -0.0765241 4.63155 1.11189 -0.392073 0.777962
56 1 0.132731 0.781728 4.28903 0.0851056 0.545162 -0.167802
8 1 -2.93606 -4.71913 4.99359 -0.110556 2.38764 -0.811659
9 1 -2.16585 -4.14038 4.83403 0.237074 0.465221 0.319647
11 1 -3.02002 -2.8039 4.71727 -1.46588 0.596308 -0.207154
10 1 -2.25437 -3.21592 5.01647 -0.651505 -0.928874 -0.713021
54 1 0.333559 -0.713795 5.35807 -1.97507 -0.520711 -2.04676
6 1 -2.47595 -5.06323 5.79863 0.0383236 -0.532916 0.0784166
7 1 -2.64783 -4.12883 5.68985 -0.74384 0.0519329 0.27756
5 1 -2.07575 -5.48317 6.62614 -0.31285 0.174288 -1.22966
1 1 -0.868199 -2.58376 6.65212 -2.1724 2.24354 -1.09058
52 1 -0.363878 -1.54494 6.24997 0.809532 -0.776514 -0.549111
53 1 0.170782 -0.778173 6.31521 1.04493 0.456107 -0.395099
4 1 -1.96198 -4.55815 6.89409 -0.52448 -1.61991 0.157882
3 1 -1.12124 -4.4003 7.392 1.133 -0.499176 -0.71619
2 1 -0.986257 -3.47148 7.05002 -0.141214 -0.243281 1.67677
51 1 -0.863671 -1.71965 7.10235 -0.827855 -0.098262 -0.345511
ITEM: TIMESTEP
10000
ITEM: NUMBER OF ATOMS
100
ITEM: BOX BOUNDS pp pp pp
-5.0980663000000000e+01 4.9019337000000000e+01
-5.4743659000000001e+01 4.5256340999999999e+01
-5.1026881000000003e+01 4.8973118999999997e+01
ITEM: ATOMS id type xu yu zu vx vy vz
99 1 6.20746 -0.575675 -0.833779 0.588433 0.850701 -0.887958
98 1 7.09539 -0.957818 -1.04013 -0.771217 -0.304652 1.31975
100 1 5.38186 -1.10724 -0.753388 -0.628165 0.201993 -0.218815
97 1 7.32377 -0.00231988 -1.21131 -0.0981269 0.439077 -0.0161602
96 1 7.78524 -0.164583 -0.422018 -0.970983 -0.349895 1.6502
95 1 7.62616 -0.860841 0.226068 0.516397 -0.413571 -0.869199
22 1 -7.97888 -9.57889 1.7607 -1.00384 0.64064 0.400066
23 1 -7.36209 -8.85662 1.75707 0.900295 -0.571289 0.815554
28 1 -7.18524 -7.35942 0.405572 0.225713 0.212915 -0.452302
21 1 -8.85969 -9.91276 1.80421 0.400072 0.0331569 1.59553
27 1 -6.9684 -7.81214 -0.458077 -0.865213 -0.109863 0.845374
29 1 -7.08838 -6.42002 0.500854 -1.33114 -0.851014 0.84798
30 1 -6.74926 -5.79836 -0.171773 1.17431 0.314383 1.64592
93 1 7.81849 -2.48082 -0.0859453 1.90392 -0.340094 0.586578
94 1 7.22358 -1.72936 -0.113038 0.275754 -1.50619 0.301049
24 1 -6.60932 -9.35322 1.40127 -1.63272 -0.726806 -0.219596
26 1 -6.06338 -8.08931 -0.166813 0.485351 1.52844 -0.00218329
31 1 -6.91521 -5.06369 -0.723966 0.904124 1.21893 -1.62886
32 1 -7.43418 -4.23498 -0.985976 0.594826 0.494274 1.4008
33 1 -7.45762 -3.66249 -1.74078 -1.44572 0.58889 -1.51516
82 1 3.93772 -1.22026 0.474836 -1.53156 1.13093 0.269368
92 1 7.97151 -3.36329 0.14518 -1.37885 0.0235714 -0.650218
41 1 -10.2875 -1.84492 1.29255 -1.89456 0.0181487 -0.667266
20 1 -9.02736 -9.70999 2.70189 -1.38566 -0.969818 0.988461
25 1 -6.40332 -8.69954 0.633226 -0.1864 -1.03324 -0.073397
80 1 4.00865 -0.0194123 -0.623628 0.635195 -0.212062 0.168528
89 1 6.10733 -4.47412 1.41585 0.522327 2.48106 1.66956
81 1 4.19517 -0.356488 0.237931 -0.676134 1.14733 2.08998
91 1 7.09693 -3.65662 0.349537 0.0947693 0.825655 0.481953
40 1 -10.0318 -2.38446 0.578642 -0.0484111 1.29903 0.150611
39 1 -9.45398 -3.14334 0.798702 0.156524 -1.60955 0.387769
67 1 -0.585196 -1.7218 3.7397 0.911265 0.842957 -0.80226
68 1 0.179822 -2.11355 3.23319 -0.20292 -0.566148 0.868315
83 1 4.06309 -2.06869 0.953421 0.032019 -1.70897 0.0290786
48 1 -10.5792 1.91231 2.38048 -0.168955 0.469377 0.0770191
69 1 0.075089 -2.25308 2.27803 -1.8218 -0.175756 -0.329176
42 1 -10.341 -2.36435 2.14294 -1.37074 -0.654953 -0.636741
18 1 -9.31288 -11.3688 2.63513 2.04955 -1.12378 0.0411204
19 1 -8.64019 -10.665 2.88079 1.71581 0.526501 -0.0101695
17 1 -9.707 -12.1354 2.13873 1.29916 0.684486 0.494989
35 1 -8.01413 -2.37569 -1.451 1.00217 -0.106692 -1.19593
34 1 -8.32449 -3.29414 -1.59945 -0.159889 0.464166 0.530729
79 1 4.54973 -0.41892 -1.25748 0.0638724 -0.918412 0.523791
36 1 -7.71373 -1.95792 -0.552514 -0.990946 1.00869 0.0288012
78 1 4.07434 -1.21908 -1.12085 -0.601038 1.77913 -1.34311
63 1 -1.60469 -3.39042 2.91301 0.900665 -0.633906 0.849789
64 1 -1.87536 -2.90918 3.69223 -0.69445 -0.0713821 2.15247
90 1 6.93378 -4.41879 0.900649 -0.361301 -0.657088 0.11145
50 1 -11.7629 2.72667 3.61963 -0.568627 1.56392 -0.690484
38 1 -8.86239 -2.47777 0.393113 0.483886 0.252008 -0.775755
49 1 -11.202 2.10062 3.08804 0.186058 2.61134 0.454608
47 1 -11.0756 1.0765 2.48885 1.11109 -0.911813 0.260169
71 1 0.595415 -1.22996 2.16352 0.138138 -1.32187 -1.11452
86 1 5.46007 -2.8839 0.978751 -0.245946 -0.366018 -0.146542
70 1 -0.328075 -1.40017 2.20599 0.343598 0.968142 0.577399
84 1 4.14481 -2.69496 1.71561 -0.894156 -0.847084 -2.34538
43 1 -10.8169 -1.6378 2.66059 -1.27963 -0.382153 0.441567
16 1 -10.2311 -12.9203 2.02818 0.129725 -1.03772 -0.783969
77 1 3.31585 -0.821148 -0.664715 0.907577 1.53237 -0.694957
37 1 -8.06908 -2.73614 -0.166766 0.32884 -0.923084 -0.371129
65 1 -1.74405 -2.00892 3.82604 1.596 -0.96171 -0.213688
76 1 2.57606 -1.06698 -0.149448 -1.21608 1.17923 0.0866356
87 1 5.73567 -3.37126 0.177662 -0.411264 -1.15407 -0.64476
88 1 5.5335 -3.99827 0.802678 -0.113649 0.329562 -0.546141
75 1 1.9569 -1.77615 0.241875 0.0297792 -1.08617 -1.19778
46 1 -11.1317 0.120543 2.62948 0.940397 -1.66959 0.951386
66 1 -1.32568 -1.65206 3.06552 -1.65097 -1.23289 -0.45688
72 1 0.884449 -1.15681 1.25052 0.702242 -0.552483 1.24399
85 1 5.08396 -2.99904 1.87318 0.224677 -0.773516 0.513648
45 1 -11.5864 -0.317655 3.41781 1.82396 0.0590439 1.23275
44 1 -11.6195 -1.237 3.01222 -0.0654347 -1.45685 -0.746067
15 1 -10.5095 -12.6956 2.91908 -0.210679 0.190576 -0.732212
14 1 -9.77273 -12.9015 3.51622 0.213408 2.02425 0.952202
62 1 -1.58474 -4.33149 2.82626 1.6682 1.47074 0.439209
74 1 1.67405 -0.842037 0.486416 -0.700756 0.045836 -0.0877595
5 1 -3.89387 -11.0807 3.60507 1.09585 -0.0673633 0.237654
12 1 -8.43093 -12.3885 2.85778 -0.691497 0.762877 -1.53341
4 1 -3.76602 -10.1419 3.62478 -2.08032 -0.40042 0.655601
13 1 -8.778 -12.8585 3.6314 0.394179 -0.361043 -0.533354
56 1 -3.94268 -5.83422 4.80324 -0.748236 0.248296 1.10504
57 1 -3.07661 -5.9705 5.20087 -1.19868 -0.93609 0.808181
60 1 -2.59058 -4.3294 4.10221 1.13311 -0.139304 -0.0265112
61 1 -1.72867 -4.28223 3.74595 2.34315 1.11129 -0.292791
73 1 0.683718 -0.616103 0.479256 -0.260366 0.206901 -0.129686
10 1 -7.19671 -12.224 2.53841 -0.271718 -0.194231 0.252441
9 1 -6.30728 -12.5276 2.17922 -1.84604 -0.320907 -2.63396
6 1 -4.7042 -11.0565 3.11648 0.746821 0.359277 -0.337705
11 1 -8.06644 -12.3697 1.98352 -0.452424 -1.13189 0.321525
3 1 -4.09232 -9.40826 4.22152 2.08298 -0.997818 0.311286
2 1 -3.54231 -10.1449 4.67461 1.16641 -1.01865 0.0570553
55 1 -3.9284 -6.67917 4.31963 -0.357211 -0.366504 0.109117
59 1 -3.23686 -4.89559 3.72211 -0.300626 0.76045 -2.79876
7 1 -5.24631 -11.8068 3.22539 -0.485394 -1.46001 -0.374709
8 1 -5.86176 -11.7073 2.56918 -1.51429 -0.801663 0.731252
1 1 -3.15231 -9.72389 5.41951 -0.881804 0.70887 -1.77136
53 1 -4.16065 -7.95057 4.92335 0.140834 1.89884 1.68379
52 1 -3.91807 -8.67418 5.55937 -0.889339 1.03608 0.175589
58 1 -2.96596 -5.26726 4.52856 1.45139 0.416293 0.308143
51 1 -2.96831 -8.84958 5.74837 1.33796 -0.602256 -0.91137
54 1 -4.60345 -7.39557 4.21381 -0.479315 0.00899599 -0.150267
ITEM: TIMESTEP
20000
ITEM: NUMBER OF ATOMS
100
ITEM: BOX BOUNDS pp pp pp
-5.0980663000000000e+01 4.9019337000000000e+01
-5.4743659000000001e+01 4.5256340999999999e+01
-5.1026881000000003e+01 4.8973118999999997e+01
ITEM: ATOMS id type xu yu zu vx vy vz
58 1 -5.4996 -5.64117 2.5455 -1.15742 1.13817 -0.565021
50 1 -10.4019 -4.70358 2.11571 -0.292618 -0.096266 1.64467
48 1 -10.7494 -3.73916 3.28341 0.333998 1.8194 0.1629
57 1 -6.43578 -5.78273 2.7897 -0.747562 0.982458 0.0614292
59 1 -5.07333 -5.97091 1.74513 0.719539 -0.383626 0.137867
66 1 -5.81226 -3.21285 0.817971 -0.648542 0.147934 -0.341979
49 1 -11.1305 -4.29542 2.60968 -0.15585 -1.55275 1.39893
47 1 -9.82776 -3.8909 2.97625 -1.26951 0.0451906 -0.180684
2 1 -8.84833 -8.64514 1.15464 1.74468 0.969713 1.92876
1 1 -8.14853 -8.53146 0.424857 -0.431139 -1.13911 -1.20914
56 1 -6.62095 -5.83629 1.76269 -0.528419 -0.947653 -1.187
51 1 -7.67146 -8.07931 1.11664 1.00607 -1.04548 0.933396
55 1 -7.60358 -5.80233 1.62402 -1.71684 0.291377 -0.269603
52 1 -7.22354 -7.71084 1.85215 -0.0547527 -0.0471131 0.0112771
61 1 -5.02153 -6.57147 0.461811 0.012884 0.144805 1.19381
64 1 -5.69371 -4.56594 0.477234 -1.18011 -0.535053 1.59985
60 1 -4.57387 -5.85404 0.898608 -0.268987 -0.173319 -0.675797
62 1 -5.50273 -6.14082 -0.280756 1.21939 -2.05646 -0.0946686
65 1 -6.32113 -3.85133 0.242344 0.0217279 1.32913 -0.111176
67 1 -5.00825 -2.96587 0.294531 2.39578 0.0779532 -0.189718
72 1 -2.17038 -3.17847 2.08865 0.950546 0.325268 1.1232
3 1 -9.11403 -8.895 2.01672 -0.330146 -0.906354 0.0269744
53 1 -6.94025 -6.73714 1.71801 1.31129 -0.078949 1.49721
54 1 -7.85257 -6.69102 1.83984 1.73067 0.789528 0.133921
68 1 -4.35432 -3.57517 0.627104 1.02004 1.39962 1.48086
63 1 -5.94541 -5.40546 0.0780594 2.13537 1.61287 -1.02068
71 1 -1.85234 -3.11227 1.18479 -1.39065 0.0630436 1.62503
73 1 -1.25364 -3.32627 2.25858 0.459009 1.60801 0.583259
74 1 -0.431036 -3.02272 1.90834 -0.133796 0.530136 -0.767254
75 1 -0.43518 -2.71434 2.79196 -2.33909 1.60496 0.292641
46 1 -9.2399 -3.17582 3.12895 -0.385475 -0.719931 -0.915497
4 1 -8.79749 -9.72512 1.63137 0.441165 0.79437 0.830447
5 1 -8.39264 -10.5746 1.95184 0.329007 -0.349595 -0.143703
69 1 -3.63568 -3.02132 0.451116 -0.401748 1.08297 -1.3765
70 1 -2.81288 -3.20237 0.98739 -1.63367 2.05861 -0.62933
45 1 -8.41858 -3.09901 2.73137 -0.167264 -0.652875 -0.276619
76 1 0.474672 -2.54423 2.68039 -0.657186 0.141017 0.770943
77 1 1.286 -2.2014 2.56412 -0.708542 -1.44454 -0.070347
79 1 2.7156 -2.1258 1.97916 -1.79541 -1.06471 -0.795798
80 1 2.88243 -1.96424 2.91827 -0.220608 -1.36931 -0.424365
6 1 -7.71583 -10.7234 2.62494 0.379113 0.184402 -0.413361
44 1 -9.12655 -2.7965 2.17482 0.187462 1.03462 0.0909563
78 1 1.74585 -2.16664 1.73708 -0.471577 -0.186602 0.81781
81 1 3.19453 -1.03601 2.78575 -0.275002 -0.55761 1.18374
83 1 3.54296 -1.4618 4.39408 0.100326 -0.0895868 0.509926
82 1 2.78862 -1.25101 3.69874 0.0290061 0.759264 -1.49759
20 1 -1.94988 -7.01821 3.45153 -1.00418 -0.462021 -0.463574
7 1 -7.7264 -10.2377 3.45415 -1.15836 -0.125854 0.367832
19 1 -2.35679 -6.19837 3.17377 -1.37537 -0.614773 0.374462
34 1 -6.87018 -4.12652 5.9461 -0.17657 0.489163 -0.704778
14 1 -3.99328 -8.69861 1.58213 0.0526645 -1.17037 -0.215099
43 1 -9.62539 -1.98362 2.03069 1.14856 -0.937753 1.15208
21 1 -1.65033 -7.94248 3.32834 -0.672571 2.03698 0.574484
8 1 -6.87974 -10.0296 3.03711 -0.039619 0.0778878 -1.34734
18 1 -3.1938 -6.61274 2.91467 0.801167 -0.431451 -0.364697
17 1 -3.77956 -7.38021 3.06349 0.0384973 0.441193 -0.805403
35 1 -6.58725 -3.56219 5.20762 -0.487686 -1.05667 -0.493099
33 1 -6.97829 -4.92299 5.41198 0.270423 -0.118737 -0.154081
15 1 -3.3401 -8.0384 1.5424 0.522623 -0.452275 -1.00208
36 1 -6.81486 -2.94173 4.49988 2.2588 -0.676396 0.887323
39 1 -7.34028 -2.92184 1.92116 -1.97632 0.589637 1.50426
42 1 -8.90469 -2.07549 1.41896 1.29246 -0.783327 0.422217
41 1 -8.61732 -2.89652 0.967208 -0.131678 1.06986 -1.10722
84 1 3.32668 -1.03981 5.23672 0.0955057 -0.881681 0.806362
85 1 2.66171 -0.952226 5.99195 1.09203 -0.218084 -0.174127
22 1 -1.61815 -8.93728 3.42519 0.247956 -0.0861546 0.803008
11 1 -5.79136 -9.90119 1.18098 1.04621 1.07173 0.325134
9 1 -5.93067 -9.52052 2.95195 0.18683 -2.4784 -0.0145798
12 1 -5.06469 -9.4941 1.65552 -0.684491 -0.0344134 -0.837866
32 1 -6.99591 -4.82487 4.44144 0.429469 0.656738 0.467916
13 1 -4.49773 -9.20155 0.883454 -1.9635 -0.17267 -2.29485
16 1 -3.14121 -7.60301 2.3896 0.282988 1.86157 0.565682
31 1 -6.03081 -4.67136 4.24231 -1.12373 -0.0226965 0.57921
30 1 -5.50876 -5.43195 4.43651 1.35924 0.708066 1.10716
37 1 -7.3747 -3.27612 3.75552 0.737168 1.6626 0.487741
38 1 -7.13447 -2.99358 2.90253 1.70428 1.34659 -0.59436
40 1 -8.01998 -3.40384 1.51771 1.15741 -2.07262 0.04763
10 1 -6.1417 -9.45045 1.96782 0.550204 -1.66123 0.279712
23 1 -2.29544 -8.80265 4.09486 -0.687509 1.1166 1.32822
27 1 -4.25365 -6.59031 4.28822 -0.0496139 -0.425626 -0.838009
28 1 -5.09206 -6.53585 3.79386 -0.404234 0.474524 0.468894
86 1 1.87291 -0.82532 5.52799 -1.38189 2.28712 -0.249417
25 1 -3.71333 -7.51727 4.41766 0.91679 -1.17063 -0.0124729
24 1 -2.95298 -7.94608 4.05904 -0.55235 -0.689129 -1.53429
26 1 -4.26876 -7.03854 5.08935 -0.0869438 -0.570678 -0.805244
29 1 -5.82019 -5.88662 3.61781 0.836116 0.495451 -0.805955
89 1 0.115648 -2.01426 5.1729 -1.39117 -1.28539 0.714217
87 1 1.69286 -1.82083 5.55384 1.12312 0.337797 -0.337116
93 1 -0.421392 -4.02969 6.73545 -0.0404634 -0.967924 1.62985
90 1 0.148423 -1.76334 6.17468 0.294421 0.0627886 -1.80097
88 1 0.958345 -1.71233 4.95592 -0.284788 -1.1971 -0.353661
94 1 -0.233331 -3.77094 7.67827 0.0162504 -0.196584 -0.078258
92 1 0.239155 -3.37058 6.94443 -1.43116 0.172772 -0.338418
91 1 -0.0762963 -2.72241 6.22146 0.371577 -0.148853 -1.2333
95 1 -0.690086 -2.96833 7.98937 -0.572281 -0.965334 -0.170684
96 1 0.0840212 -3.10709 8.4915 0.801867 0.990804 0.862418
97 1 0.883182 -2.7233 8.08145 0.852431 -1.49808 -0.389284
98 1 1.45766 -2.22417 7.47881 -0.980922 0.0935345 -0.157721
99 1 1.76824 -1.52312 8.00461 0.370637 1.10074 -1.1678
100 1 1.7844 -0.582627 8.08655 -1.36133 -1.23186 0.923905
ITEM: TIMESTEP
30000
ITEM: NUMBER OF ATOMS
100
ITEM: BOX BOUNDS pp pp pp
-5.0980663000000000e+01 4.9019337000000000e+01
-5.4743659000000001e+01 4.5256340999999999e+01
-5.1026881000000003e+01 4.8973118999999997e+01
ITEM: ATOMS id type xu yu zu vx vy vz
52 1 -4.17325 -1.65703 1.85901 -0.190065 0.121719 1.95381
59 1 -4.74459 -1.65028 4.96658 -0.205639 0.303101 -0.809995
2 1 -5.49361 -2.154 1.86022 -1.18245 1.56573 1.41261
1 1 -4.734 -2.60061 2.29241 -0.840664 -0.656844 0.49491
51 1 -3.91143 -2.57307 1.8624 -2.31453 -0.281184 0.359878
3 1 -4.80424 -2.34988 1.1698 -0.839344 -0.779568 0.398203
60 1 -4.85504 -2.0979 3.97574 0.000801054 0.75722 0.500263
58 1 -3.75429 -1.67179 4.61947 0.181035 0.390369 1.51753
53 1 -3.16136 -1.72822 2.17474 1.68953 -0.274098 0.799982
54 1 -3.22251 -0.731033 2.30029 0.374157 -1.16745 0.489669
55 1 -3.34872 -0.184304 3.07302 -0.55684 -1.1976 0.81912
62 1 -6.67134 -3.01387 4.08876 -0.359768 0.608312 1.96574
61 1 -5.85385 -2.53399 3.80622 -0.475944 -0.707501 0.710776
57 1 -3.43493 -0.760746 4.55798 -0.468244 -0.767544 -0.968052
100 1 0.176621 -1.70494 3.51312 2.31655 -0.268265 1.86326
56 1 -3.08846 -0.0502216 4.01019 1.29552 -0.833828 0.376844
30 1 -9.82366 -10.1618 3.32799 -0.573808 -0.763441 0.279836
7 1 -4.68751 -3.4797 1.46623 -0.289615 -0.0146943 -3.30112
4 1 -5.38414 -2.79697 0.58792 0.41675 0.449545 -0.905453
6 1 -5.36858 -3.49953 2.13906 -0.0372386 1.11914 -0.511079
5 1 -5.80001 -3.14552 1.35374 -0.607404 1.2418 -0.769451
63 1 -7.59236 -3.01443 4.05332 0.0339901 -1.04224 -0.0579789
99 1 -0.513111 -1.11106 3.39014 -0.135692 0.895385 -0.152008
31 1 -9.56408 -10.9449 3.73806 -0.110946 -1.20505 -0.551527
29 1 -9.56822 -9.27456 3.54013 -0.0490402 0.305914 2.27452
28 1 -8.71446 -9.01755 3.90419 1.93193 -0.777921 0.240149
27 1 -8.68129 -8.06425 3.94811 0.373281 -0.493855 0.590391
16 1 -2.1618 -5.93656 4.66991 0.798931 -1.08751 1.87032
15 1 -1.39393 -5.87583 4.0318 1.80866 0.947309 0.0685251
14 1 -0.867801 -5.13821 4.30687 -0.232675 0.445413 -0.0961192
67 1 -7.62689 -0.957029 4.96726 -1.10444 -0.00306015 1.38823
8 1 -3.99719 -3.99127 1.88751 0.557505 -0.707793 0.262124
66 1 -7.11305 -1.52815 4.36668 1.56872 0.241918 -0.323802
65 1 -6.97712 -2.07012 3.57647 0.707859 2.23844 2.5074
64 1 -7.89906 -2.2689 3.53437 -0.319302 -0.119514 2.1983
98 1 -0.559076 -0.391016 4.06908 -0.347946 0.607523 -0.494609
32 1 -9.11589 -11.7494 3.47468 0.00599504 -0.332888 1.99516
17 1 -2.7557 -5.81139 3.99662 -1.01983 0.991633 -1.3993
13 1 -1.50008 -4.60246 3.79493 0.654948 0.53614 0.084925
18 1 -3.04008 -6.64435 4.28303 -0.601952 -0.162285 -1.15736
9 1 -3.05816 -3.81511 2.137 -1.60254 -0.628087 -0.465249
68 1 -8.41808 -1.05832 5.565 0.829871 0.711774 -0.907335
69 1 -8.36707 -0.207089 5.93072 0.456914 -0.683544 -0.0920851
70 1 -7.66672 -0.288275 6.6131 0.370275 -0.968823 -2.1493
96 1 -0.658529 0.751465 4.11017 -0.603812 0.100825 -1.64547
97 1 -0.830573 0.143795 4.81197 -1.30014 0.0249871 -0.709249
49 1 -10.6514 -16.7193 5.49919 -0.562872 -0.733375 -1.34027
50 1 -11.1642 -17.5666 5.45256 1.68657 -1.50458 -0.394527
33 1 -9.27682 -12.5845 3.8198 -0.866979 -0.111185 -0.467644
26 1 -8.17808 -7.27826 3.73869 -1.23343 0.305052 -0.992205
24 1 -6.83207 -7.46397 3.69663 0.0282625 -0.588204 0.753755
22 1 -5.61043 -7.12545 3.93402 0.272375 -1.2251 0.528884
23 1 -6.42025 -6.95159 4.40901 2.42387 -0.624301 0.567178
21 1 -4.73006 -6.76129 4.03279 0.506592 -0.463877 0.00593281
12 1 -2.17104 -5.14273 3.38393 0.569376 -0.106333 -0.167039
10 1 -2.45062 -4.55705 2.31208 -0.937933 -1.21053 1.68918
95 1 -0.54538 1.18439 4.99687 -0.361719 0.28128 0.859039
47 1 -9.79031 -15.5555 4.61847 0.670829 -0.357805 -0.260484
48 1 -10.3631 -15.8359 5.30312 -0.678826 0.607979 1.81852
34 1 -9.02019 -13.1259 4.62857 0.199214 0.920661 -1.76709
25 1 -7.38539 -6.83787 3.24934 1.83928 -1.47328 -1.15739
20 1 -4.25899 -6.61089 4.90797 -1.01369 0.476815 0.788538
19 1 -3.736 -7.28608 4.38259 -1.49321 -0.699931 -2.08583
11 1 -2.27622 -5.50889 2.50264 0.4412 0.765355 -0.256198
71 1 -6.80992 -0.632047 6.46556 -0.542089 0.416023 0.706845
72 1 -6.15851 0.150668 6.60086 1.34093 1.36373 -1.2551
93 1 -1.8522 0.117427 5.1252 0.418828 0.270765 1.06017
94 1 -1.45551 1.02118 5.10488 0.347296 0.169225 -0.316165
45 1 -8.56261 -16.0188 3.67052 -1.93949 -1.07945 -1.31611
46 1 -9.17002 -15.2874 3.92899 -0.479993 0.207477 -1.37294
39 1 -8.76929 -14.4361 6.17209 0.465317 1.1363 0.794942
73 1 -5.56776 0.253624 5.85388 0.403568 1.02582 1.26859
92 1 -1.25063 -0.532869 5.55445 1.05674 -0.668251 1.70517
44 1 -8.28759 -15.4382 2.95682 0.472421 -0.607085 -0.383063
43 1 -8.30224 -14.7053 3.66173 -0.741252 -0.402107 -1.55203
42 1 -7.85529 -15.0782 4.40203 1.30392 -0.573735 -0.393251
40 1 -7.84962 -14.17 6.09948 -0.771549 0.301412 -0.833748
37 1 -8.59232 -12.9225 6.77048 -1.11348 0.134069 0.991786
38 1 -9.19779 -13.5452 6.31582 -0.581307 0.176948 0.882186
36 1 -8.44473 -12.8508 5.75374 -0.209782 -0.468438 -0.19011
35 1 -8.18726 -12.6535 4.79757 -0.297824 0.870985 0.167163
74 1 -5.44915 -0.644094 6.25846 -0.958795 -0.803085 -0.0235316
91 1 -0.576001 -0.961405 6.1268 0.250879 0.621437 0.896146
41 1 -7.85478 -14.4809 5.15793 -0.891564 0.481987 -0.11404
76 1 -4.89353 -0.317442 7.25546 -0.943884 -0.0464355 0.555853
75 1 -4.85042 -1.2027 6.85554 -0.503749 0.742468 0.81439
90 1 -0.240458 -1.27985 5.30096 -0.95519 -0.259407 -1.2689
89 1 -0.751675 -2.0365 4.99058 0.0549297 2.08769 0.364826
77 1 -3.97276 -0.104004 7.07011 0.229101 2.16642 -0.494191
79 1 -3.18196 0.552131 7.88335 0.206803 -0.361263 0.20575
88 1 -1.40305 -1.7254 5.61448 1.20569 -1.46517 0.619054
81 1 -1.99213 0.859103 8.30569 1.04735 0.709579 -0.0505414
78 1 -3.97484 -0.0417934 7.96886 -1.53898 1.52239 -0.329427
80 1 -2.80347 1.37443 8.22768 0.480366 0.708922 -0.146563
87 1 -1.18312 -2.52792 6.0148 0.127127 0.320137 -1.52208
82 1 -1.41148 0.648353 7.53904 -1.14144 1.09933 -2.25734
83 1 -1.42936 -0.272014 7.57502 0.159568 -1.74227 -1.00109
84 1 -1.89397 -1.21279 7.7244 -1.79389 0.350273 -0.695889
85 1 -1.73881 -1.91326 7.09798 0.201201 -0.0276924 1.23672
86 1 -2.12644 -2.40191 6.33914 2.09265 -1.44313 -2.04383
ITEM: TIMESTEP
40000
ITEM: NUMBER OF ATOMS
100
ITEM: BOX BOUNDS pp pp pp
-5.0980663000000000e+01 4.9019337000000000e+01
-5.4743659000000001e+01 4.5256340999999999e+01
-5.1026881000000003e+01 4.8973118999999997e+01
ITEM: ATOMS id type xu yu zu vx vy vz
50 1 -11.6213 -10.907 3.28679 0.294323 -0.438685 0.0733965
49 1 -11.074 -10.9214 2.41514 -1.47318 -0.358576 -0.603721
42 1 -8.01618 -11.7529 0.935568 0.472856 0.451755 0.198299
43 1 -8.98841 -11.9135 0.612287 -1.70759 0.612963 1.09868
48 1 -10.5973 -11.6539 2.09735 -0.236065 0.142345 1.67841
41 1 -8.62219 -11.1826 1.34455 1.33757 1.22964 -0.439052
47 1 -10.3657 -11.3835 1.14296 -1.31708 0.295936 -0.481374
44 1 -9.65919 -11.7519 -0.093938 0.320617 0.859614 -0.485135
46 1 -10.6642 -11.4862 0.216912 -0.179435 0.515477 1.25917
40 1 -8.21444 -11.2738 2.19471 0.267362 -0.788058 0.310367
45 1 -10.0779 -10.9379 -0.307072 0.751041 0.721673 0.408274
98 1 -1.59687 5.43092 2.38235 -1.02339 -0.650068 -0.0827757
99 1 -0.709078 5.3179 2.68442 -0.752066 0.618876 -1.18754
100 1 -1.08113 5.91666 3.3242 -0.839311 2.1912 -1.76894
39 1 -7.81569 -11.073 2.99388 -0.726748 -0.169825 -0.0564665
36 1 -8.30879 -12.6475 4.82062 0.561419 0.692313 -0.929967
38 1 -7.49392 -11.4205 3.84708 -1.29072 -0.48638 0.949679
35 1 -8.31512 -11.723 5.08732 1.70386 0.232462 0.114201
37 1 -7.70491 -12.3327 4.13535 -1.00104 -0.473906 -1.39026
96 1 -2.54617 6.25309 2.70092 -0.000960921 -0.877319 -0.657576
97 1 -2.03393 6.19321 1.86393 0.227102 0.213832 -0.0328892
34 1 -7.69605 -11.6129 5.90765 0.50771 2.4761 -0.5018
56 1 -4.14813 -6.13657 4.57129 -1.6307 0.746335 0.563644
57 1 -3.73074 -5.88898 5.39642 0.792572 0.403624 -0.0153628
95 1 -1.90616 6.76147 3.25249 -1.92172 0.0878831 -0.37177
25 1 -13.0851 -11.292 6.32058 0.40144 0.578795 0.663684
26 1 -12.5904 -11.9633 5.84874 -1.50587 0.288144 0.348524
55 1 -3.74672 -6.95918 4.81104 -0.850434 -2.73894 0.835912
58 1 -4.45712 -5.23173 5.44055 -0.964963 -0.0905708 -0.264472
94 1 -2.37986 6.1954 3.83843 -0.8731 0.172047 0.960346
93 1 -1.85569 5.44867 3.94637 1.09066 -1.09831 -0.762764
33 1 -8.41933 -11.0477 6.33268 -0.549869 1.03638 0.187132
32 1 -9.04313 -11.6391 5.95916 -1.23775 2.42323 0.371663
24 1 -13.6628 -10.5569 6.4204 -0.410342 -0.730971 -0.734628
92 1 -1.14215 5.13658 4.46275 1.17033 -1.42437 0.0696511
91 1 -0.159632 4.75055 4.55532 1.5531 -0.148593 0.724806
31 1 -9.93416 -11.6552 5.57523 1.08458 -3.01496 -1.26166
30 1 -10.2066 -11.1011 4.89073 0.115727 -0.742508 0.218164
29 1 -10.9157 -11.2126 4.24056 1.96873 -0.281475 0.25507
22 1 -12.4871 -10.204 6.21567 -0.833415 0.181712 -1.16495
27 1 -11.8964 -11.8444 5.12739 -1.24751 -0.129992 2.112
23 1 -13.1127 -9.75699 6.72344 -0.783752 0.288834 1.0612
54 1 -4.56769 -7.54117 4.93975 0.548566 0.847718 1.00041
53 1 -4.50088 -7.85001 5.90323 1.58876 -1.74432 -0.246046
52 1 -4.63118 -8.47073 6.61709 0.263701 0.723705 1.90385
60 1 -5.26508 -4.14104 5.19004 -0.0759591 -1.14491 -0.864784
59 1 -5.36071 -4.98918 5.56528 1.15438 1.05752 0.0860281
28 1 -11.7701 -11.0542 4.58046 0.914502 -0.249533 -0.0830695
21 1 -12.172 -9.59279 5.44826 -0.799648 0.120053 -0.111302
62 1 -4.04749 -3.03937 6.18209 -2.36089 -0.140122 -0.556909
75 1 -1.72953 -0.810742 10.8932 -0.687596 -1.40336 -0.596038
76 1 -1.38861 0.0878446 10.857 -0.942548 0.542632 1.54637
90 1 -0.778665 4.26995 5.05817 -1.16702 1.18422 0.208296
51 1 -4.21372 -9.30612 6.87355 0.818897 0.0588545 -2.15706
61 1 -4.70749 -3.66474 5.86361 0.624191 -0.61032 1.10359
63 1 -4.12405 -3.49836 7.06619 -0.668092 -0.00949429 -0.198265
71 1 -3.63817 -1.60514 9.33837 1.77479 -1.15926 0.261023
77 1 -2.11656 0.707587 10.8425 -1.40783 0.561224 1.45302
79 1 -2.1158 2.21421 10.0633 0.00862763 -1.21143 0.0200586
88 1 -2.11903 5.11423 5.90486 0.620504 -0.632077 -0.995141
86 1 -2.0613 3.75426 6.84267 -0.989396 -0.577778 0.51514
89 1 -1.3052 4.43583 5.86042 -0.0823881 1.14804 1.44439
19 1 -11.9077 -9.27139 6.63228 0.512182 0.789195 1.45726
20 1 -12.0156 -8.72488 5.80963 1.31132 0.232841 2.32309
8 1 -7.1851 -8.22142 7.8718 1.48448 -0.166141 -1.29447
18 1 -11.3186 -8.4952 6.75208 0.270163 -0.870175 -1.32445
6 1 -6.72693 -8.45886 6.63885 -0.457837 -1.86892 0.495779
3 1 -6.00601 -9.72028 6.14116 -0.0601624 1.8004 -0.935916
2 1 -5.18657 -10.2509 5.96125 -0.584723 1.36444 1.11527
1 1 -4.33417 -9.82252 6.08811 -0.228639 1.46313 0.696355
64 1 -3.47273 -3.8336 7.65516 3.55745 0.301343 -0.260989
69 1 -3.8015 -1.82111 7.7979 0.431092 1.54201 2.31916
70 1 -4.21154 -1.43072 8.62446 0.143169 -2.17666 -1.60107
72 1 -3.93512 -1.10871 10.1378 -0.548209 -0.363656 1.06331
73 1 -3.25375 -1.31266 10.8014 -1.23482 0.607318 1.43449
74 1 -2.3044 -1.63567 10.8721 0.240149 0.322094 -0.981653
80 1 -2.89937 2.76097 10.1261 2.07286 1.04351 -0.136235
78 1 -1.94072 1.30625 10.1422 0.530857 0.221783 0.948087
85 1 -1.23323 3.33734 7.09837 0.36577 -0.898866 0.113949
87 1 -2.27587 4.70606 6.88953 0.019285 -0.942658 -0.0361162
15 1 -9.86549 -7.5745 7.40354 -1.06964 0.177382 -1.03766
17 1 -11.1716 -7.68917 7.24156 -0.994709 -0.141588 -0.522071
14 1 -9.53247 -6.73761 7.70142 1.67371 -0.662938 0.726553
7 1 -6.48924 -8.77636 7.50526 1.23774 0.461138 -1.47374
5 1 -7.12677 -9.3077 6.4091 1.19319 -2.27392 -1.20238
9 1 -7.60848 -9.13621 7.83387 -0.507848 1.68939 -0.0181183
4 1 -6.83103 -10.2209 6.28308 -1.17477 -1.68538 -1.52747
65 1 -2.96741 -3.05772 7.62435 0.668751 0.813253 0.131063
68 1 -3.45182 -2.28913 8.56086 0.413843 0.620644 0.0506113
81 1 -2.75758 3.70511 10.0041 -0.522978 0.415918 -0.82711
84 1 -1.39226 3.17458 8.0224 -1.26689 0.928344 -0.401547