LAMMPS data file via write_data, version 23 Jun 2022, timestep = 0

100 atoms
4 atom types
99 bonds
1 bond types

0 35 xlo xhi
0 35 ylo yhi
0 35 zlo zhi

Masses

1 1
2 1
3 1
4 1

Atoms # full

1 1 1 0 9.43368459562096 17.78875032694603 4.560374265630358 -1 1 0
2 1 2 0 10.197250332817632 17.384524649518383 5.001360622207809 -1 1 0
3 1 4 1 10.96081607001431 16.980298972090722 5.44234697878526 -1 1 0
4 1 2 0 11.724381807210982 16.576073294663075 5.883333335362707 -1 1 0
5 1 4 1 12.48794754440766 16.171847617235414 6.324319691940161 -1 1 0
6 1 2 0 13.251513281604332 15.767621939807768 6.765306048517612 -1 1 0
7 1 3 -1 14.015079018801003 15.363396262380107 7.206292405095059 -1 1 0
8 1 3 -1 14.778644755997682 14.95917058495246 7.64727876167251 -1 1 0
9 1 4 1 15.542210493194354 14.5549449075248 8.08826511824996 -1 1 0
10 1 4 1 16.305776230391032 14.150719230097145 8.529251474827412 -1 1 0
11 1 4 1 17.069341967587704 13.746493552669492 8.970237831404862 -1 1 0
12 1 1 0 17.832907704784375 13.342267875241838 9.411224187982313 -1 1 0
13 1 2 0 18.596473441981047 12.938042197814184 9.852210544559764 -1 1 0
14 1 4 1 19.360039179177726 12.533816520386537 10.293196901137211 -1 1 0
15 1 4 1 20.123604916374397 12.129590842958876 10.734183257714662 -1 1 0
16 1 1 0 20.88717065357107 11.72536516553123 11.17516961429211 -1 1 0
17 1 3 -1 21.65073639076774 11.321139488103569 11.616155970869562 -1 1 0
18 1 3 -1 22.41430212796442 10.916913810675915 12.057142327447012 -1 1 0
19 1 4 1 23.17786786516109 10.512688133248261 12.498128684024463 -1 1 0
20 1 2 0 23.94143360235777 10.108462455820607 12.939115040601914 -1 1 0
21 1 4 1 24.70499933955444 9.704236778392954 13.380101397179363 -1 1 0
22 1 2 0 25.46856507675112 9.3000111009653 13.821087753756814 -1 1 0
23 1 3 -1 26.23213081394779 8.895785423537646 14.262074110334265 -1 1 0
24 1 4 1 26.995696551144462 8.491559746109992 14.703060466911714 -1 1 0
25 1 2 0 27.75926228834114 8.087334068682338 15.144046823489164 -1 1 0
26 1 3 -1 28.522828025537812 7.6831083912546845 15.585033180066615 -1 1 0
27 1 2 0 29.286393762734484 7.278882713827031 16.026019536644064 -1 1 0
28 1 3 -1 30.049959499931163 6.874657036399377 16.467005893221515 -1 1 0
29 1 4 1 30.813525237127834 6.470431358971723 16.907992249798966 -1 1 0
30 1 3 -1 31.577090974324506 6.066205681544069 17.348978606376413 -1 1 0
31 1 3 -1 32.340656711521184 5.661980004116415 17.789964962953867 -1 1 0
32 1 2 0 33.104222448717856 5.257754326688762 18.230951319531314 -1 1 0
33 1 2 0 33.86778818591453 4.853528649261108 18.671937676108765 -1 1 0
34 1 1 0 34.631353923111206 4.449302971833454 19.112924032686216 -1 1 0
35 1 4 1 0.39491966030787573 4.0450772944058 19.553910389263663 0 1 0
36 1 3 -1 1.1584853975045544 3.6408516169781464 19.994896745841118 0 1 0
37 1 2 0 1.9220511347012277 3.2366259395504926 20.43588310241857 0 1 0
38 1 4 1 2.685616871897901 2.832400262122839 20.87686945899602 0 1 0
39 1 2 0 3.4491826090945743 2.428174584695185 21.317855815573466 0 1 0
40 1 3 -1 4.212748346291248 2.023948907267531 21.758842172150917 0 1 0
41 1 3 -1 4.976314083487921 1.6197232298398774 22.199828528728368 0 1 0
42 1 4 1 5.7398798206846 1.2154975524122236 22.64081488530582 0 1 0
43 1 3 -1 6.503445557881273 0.8112718749845698 23.08180124188327 0 1 0
44 1 2 0 7.267011295077946 0.40704619755691596 23.52278759846072 0 1 0
45 1 4 1 8.030577032274618 0.0028205201292621496 23.963773955038167 0 1 0
46 1 3 -1 8.794142769471293 34.59859484270161 24.404760311615618 0 0 0
47 1 2 0 9.557708506667964 34.194369165273955 24.84574666819307 0 0 0
48 1 4 1 10.321274243864645 33.790143487846294 25.28673302477052 0 0 0
49 1 2 0 11.084839981061318 33.38591781041864 25.72771938134797 0 0 0
50 1 3 -1 11.848405718257991 32.981692132990986 26.16870573792542 0 0 0
51 1 4 1 12.611971455454663 32.57746645556334 26.60969209450287 0 0 0
52 1 2 0 13.375537192651336 32.173240778135686 27.05067845108032 0 0 0
53 1 3 -1 14.13910292984801 31.769015100708028 27.49166480765777 0 0 0
54 1 4 1 14.902668667044683 31.364789423280374 27.932651164235217 0 0 0
55 1 2 0 15.666234404241361 30.96056374585272 28.37363752081267 0 0 0
56 1 1 0 16.429800141438037 30.556338068425067 28.814623877390122 0 0 0
57 1 2 0 17.193365878634708 30.152112390997413 29.25561023396757 0 0 0
58 1 3 -1 17.95693161583138 29.74788671356976 29.69659659054502 0 0 0
59 1 2 0 18.720497353028055 29.343661036142105 30.13758294712247 0 0 0
60 1 4 1 19.48406309022473 28.93943535871445 30.578569303699922 0 0 0
61 1 1 0 20.24762882742141 28.535209681286794 31.019555660277373 0 0 0
62 1 2 0 21.01119456461808 28.13098400385914 31.460542016854824 0 0 0
63 1 2 0 21.77476030181475 27.726758326431487 31.90152837343227 0 0 0
64 1 2 0 22.538326039011427 27.322532649003833 32.342514730009725 0 0 0
65 1 2 0 23.3018917762081 26.91830697157618 32.78350108658717 0 0 0
66 1 2 0 24.065457513404773 26.51408129414853 33.22448744316462 0 0 0
67 1 3 -1 24.829023250601445 26.109855616720875 33.665473799742074 0 0 0
68 1 4 1 25.59258898779812 25.70562993929322 34.10646015631952 0 0 0
69 1 3 -1 26.356154724994795 25.301404261865567 34.54744651289697 0 0 0
70 1 4 1 27.119720462191477 24.89717858443791 34.98843286947442 0 0 0
71 1 2 0 27.883286199388152 24.492952907010256 0.429419226051877 0 0 1
72 1 2 0 28.646851936584824 24.088727229582602 0.8704055826293242 0 0 1
73 1 3 -1 29.410417673781495 23.68450155215495 1.3113919392067714 0 0 1
74 1 2 0 30.173983410978167 23.280275874727295 1.7523782957842258 0 0 1
75 1 2 0 30.937549148174845 22.87605019729964 2.193364652361673 0 0 1
76 1 4 1 31.701114885371517 22.471824519871987 2.6343510089391273 0 0 1
77 1 2 0 32.46468062256819 22.067598842444333 3.0753373655165746 0 0 1
78 1 2 0 33.22824635976486 21.66337316501668 3.5163237220940218 0 0 1
79 1 2 0 33.99181209696154 21.259147487589026 3.957310078671476 0 0 1
80 1 2 0 34.75537783415821 20.854921810161372 4.398296435248923 0 0 1
81 1 3 -1 0.5189435713548818 20.450696132733718 4.839282791826378 1 0 1
82 1 3 -1 1.2825093085515533 20.046470455306064 5.280269148403825 1 0 1
83 1 3 -1 2.046075045748239 19.642244777878407 5.721255504981279 1 0 1
84 1 2 0 2.8096407829449106 19.238019100450753 6.162241861558726 1 0 1
85 1 2 0 3.573206520141582 18.8337934230231 6.603228218136181 1 0 1
86 1 2 0 4.336772257338261 18.429567745595445 7.044214574713628 1 0 1
87 1 4 1 5.100337994534932 18.02534206816779 7.485200931291075 1 0 1
88 1 2 0 5.863903731731604 17.62111639074014 7.9261872878685296 1 0 1
89 1 2 0 6.627469468928275 17.216890713312488 8.367173644445977 1 0 1
90 1 2 0 7.391035206124954 16.812665035884834 8.808160001023424 1 0 1
91 1 3 -1 8.154600943321626 16.40843935845718 9.249146357600878 1 0 1
92 1 2 0 8.918166680518297 16.004213681029526 9.690132714178326 1 0 1
93 1 2 0 9.681732417714976 15.599988003601872 10.131119070755773 1 0 1
94 1 2 0 10.445298154911647 15.195762326174219 10.572105427333227 1 0 1
95 1 4 1 11.208863892108333 14.791536648746558 11.013091783910681 1 0 1
96 1 2 0 11.972429629305005 14.387310971318904 11.454078140488136 1 0 1
97 1 2 0 12.735995366501676 13.98308529389125 11.895064497065583 1 0 1
98 1 4 1 13.499561103698348 13.5788596164636 12.33605085364303 1 0 1
99 1 2 0 14.263126840895026 13.174633939035946 12.777037210220485 1 0 1
100 1 3 -1 15.026692578091698 12.770408261608292 13.218023566797932 1 0 1

Velocities

1 0 0 0
2 0 0 0
3 0 0 0
4 0 0 0
5 0 0 0
6 0 0 0
7 0 0 0
8 0 0 0
9 0 0 0
10 0 0 0
11 0 0 0
12 0 0 0
13 0 0 0
14 0 0 0
15 0 0 0
16 0 0 0
17 0 0 0
18 0 0 0
19 0 0 0
20 0 0 0
21 0 0 0
22 0 0 0
23 0 0 0
24 0 0 0
25 0 0 0
26 0 0 0
27 0 0 0
28 0 0 0
29 0 0 0
30 0 0 0
31 0 0 0
32 0 0 0
33 0 0 0
34 0 0 0
35 0 0 0
36 0 0 0
37 0 0 0
38 0 0 0
39 0 0 0
40 0 0 0
41 0 0 0
42 0 0 0
43 0 0 0
44 0 0 0
45 0 0 0
46 0 0 0
47 0 0 0
48 0 0 0
49 0 0 0
50 0 0 0
51 0 0 0
52 0 0 0
53 0 0 0
54 0 0 0
55 0 0 0
56 0 0 0
57 0 0 0
58 0 0 0
59 0 0 0
60 0 0 0
61 0 0 0
62 0 0 0
63 0 0 0
64 0 0 0
65 0 0 0
66 0 0 0
67 0 0 0
68 0 0 0
69 0 0 0
70 0 0 0
71 0 0 0
72 0 0 0
73 0 0 0
74 0 0 0
75 0 0 0
76 0 0 0
77 0 0 0
78 0 0 0
79 0 0 0
80 0 0 0
81 0 0 0
82 0 0 0
83 0 0 0
84 0 0 0
85 0 0 0
86 0 0 0
87 0 0 0
88 0 0 0
89 0 0 0
90 0 0 0
91 0 0 0
92 0 0 0
93 0 0 0
94 0 0 0
95 0 0 0
96 0 0 0
97 0 0 0
98 0 0 0
99 0 0 0
100 0 0 0

Bonds

1 1 1 2
2 1 2 3
3 1 3 4
4 1 4 5
5 1 5 6
6 1 6 7
7 1 7 8
8 1 8 9
9 1 9 10
10 1 10 11
11 1 11 12
12 1 12 13
13 1 13 14
14 1 14 15
15 1 15 16
16 1 16 17
17 1 17 18
18 1 18 19
19 1 19 20
20 1 20 21
21 1 21 22
22 1 22 23
23 1 23 24
24 1 24 25
25 1 25 26
26 1 26 27
27 1 27 28
28 1 28 29
29 1 29 30
30 1 30 31
31 1 31 32
32 1 32 33
33 1 33 34
34 1 34 35
35 1 35 36
36 1 36 37
37 1 37 38
38 1 38 39
39 1 39 40
40 1 40 41
41 1 41 42
42 1 42 43
43 1 43 44
44 1 44 45
45 1 45 46
46 1 46 47
47 1 47 48
48 1 48 49
49 1 49 50
50 1 50 51
51 1 51 52
52 1 52 53
53 1 53 54
54 1 54 55
55 1 55 56
56 1 56 57
57 1 57 58
58 1 58 59
59 1 59 60
60 1 60 61
61 1 61 62
62 1 62 63
63 1 63 64
64 1 64 65
65 1 65 66
66 1 66 67
67 1 67 68
68 1 68 69
69 1 69 70
70 1 70 71
71 1 71 72
72 1 72 73
73 1 73 74
74 1 74 75
75 1 75 76
76 1 76 77
77 1 77 78
78 1 78 79
79 1 79 80
80 1 80 81
81 1 81 82
82 1 82 83
83 1 83 84
84 1 84 85
85 1 85 86
86 1 86 87
87 1 87 88
88 1 88 89
89 1 89 90
90 1 90 91
91 1 91 92
92 1 92 93
93 1 93 94
94 1 94 95
95 1 95 96
96 1 96 97
97 1 97 98
98 1 98 99
99 1 99 100
