LAMMPS data file via write_data, version 23 Jun 2022, timestep = 1000000

100 atoms
4 atom types
99 bonds
1 bond types

0 35 xlo xhi
0 35 ylo yhi
0 35 zlo zhi

Masses

1 1
2 1
3 1
4 1

Atoms # full

80 1 2 0 11.363949931564086 34.03731080522948 24.59951468337451 0 0 0
82 1 3 -1 12.681890484960043 0.28243364789805364 24.88813453527346 0 1 0
81 1 3 -1 12.013815131151729 34.65746929951454 24.767357147999157 0 0 0
11 1 4 1 11.310347847453414 0.09186662558156942 27.227408284378583 0 1 0
7 1 3 -1 13.469643267673288 0.303203975783194 26.632743505211113 0 1 0
6 1 2 0 14.377747132437724 34.86304923842282 26.781305729822844 0 0 0
8 1 3 -1 13.318922701438543 0.5396841139958404 25.63488914865013 0 1 0
10 1 4 1 11.501032540180455 0.45616356617016773 26.32838261443334 0 1 0
99 1 2 0 12.131051290904253 34.502774496840885 26.746166956540957 0 0 0
9 1 4 1 12.410756715379197 0.518849585170928 25.978734368873422 0 1 0
98 1 4 1 12.914154616393768 34.308567587203555 26.303390010737896 0 0 0
100 1 3 -1 12.323915643941504 0.4264185049894912 26.9761250324663 0 1 0
34 1 1 0 11.650974850400518 29.491017738501785 28.71490532644273 0 0 0
35 1 4 1 11.940881696956374 29.708087711053977 29.61282557230652 0 0 0
17 1 3 -1 11.397668655584557 34.47224694690146 28.84647641319598 0 0 0
15 1 4 1 12.449603178226287 33.246569572308736 28.51943541413715 0 0 0
16 1 1 0 12.249288831248544 34.180506138689005 28.368623089148613 0 0 0
73 1 3 -1 9.992738114434648 34.01659151102318 25.060692463060068 0 0 0
74 1 2 0 10.767187463970538 33.48294741588274 25.32482099067032 0 0 0
12 1 1 0 11.055834540894109 34.40745171724272 27.77064346844409 0 0 0
13 1 2 0 11.778780428641968 33.87105197296268 27.42942190061277 0 0 0
18 1 3 -1 10.440161448110942 34.29468316794157 28.69581291013148 0 0 0
19 1 4 1 9.9396116608051 34.36662216168145 27.893208362825234 0 0 0
75 1 2 0 10.775389789142357 33.22826943212504 24.34399447229185 0 0 0
72 1 2 0 9.674439329647493 33.16662187501172 24.65160213340358 0 0 0
70 1 4 1 10.503534207842824 31.941173564088068 25.737873627202966 0 0 0
71 1 2 0 10.235053030885968 32.61049464406208 25.084563755504195 0 0 0
29 1 4 1 10.763577997350335 31.185047353044588 27.86049836647941 0 0 0
20 1 2 0 9.874767977470366 33.38224168367693 27.72907109120882 0 0 0
26 1 3 -1 9.792444659646113 31.255742937980436 28.745340352051656 0 0 0
23 1 3 -1 8.906780349849322 31.984898518638044 27.470153082936378 0 0 0
22 1 2 0 9.720385935326785 32.251576280110505 27.039665710079117 0 0 0
24 1 4 1 9.487079306559863 31.17822591208943 27.524599576669456 0 0 0
27 1 2 0 10.327000663282474 32.05404652423002 28.5605098620899 0 0 0
21 1 4 1 10.459441437700603 32.63427253407491 27.53155343866512 0 0 0
28 1 3 -1 11.149760489515064 32.081089713881575 28.04322988597951 0 0 0
14 1 4 1 12.074113457332478 32.978173779033256 27.74061135526696 0 0 0
79 1 2 0 11.76517164274876 33.308818893255214 24.17617411253749 0 0 0
56 1 1 0 11.773110135974553 32.32720561344576 23.73115532570099 0 0 0
25 1 2 0 9.12709171817464 30.729214053515012 28.33594458450264 0 0 0
3 1 4 1 14.473663688425125 34.950140015112396 24.975194113626628 0 0 0
2 1 2 0 15.256207917334388 34.61557108489043 25.424338021890076 0 0 0
1 1 1 0 15.588672676586956 34.62694581722877 24.49750415447198 0 0 0
36 1 3 -1 11.45076756235461 30.55919340765646 29.565773102771857 0 0 0
69 1 3 -1 11.43044200856456 31.433792045281006 25.792129227041933 0 0 0
68 1 4 1 11.964587923448263 31.809621399868494 26.45836449781211 0 0 0
67 1 3 -1 12.64006740989362 32.135778029289874 27.144246836282708 0 0 0
30 1 3 -1 11.646307133875636 31.363491298147363 27.468960011808353 0 0 0
76 1 4 1 10.260833066662919 34.02180846108161 23.936650205340392 0 0 0
77 1 2 0 11.146096948151328 33.75672306863336 23.477648618404178 0 0 0
60 1 4 1 12.647490494966998 32.10400910275477 25.645744573052113 0 0 0
66 1 2 0 13.011532308661554 33.007190849650726 27.269015240240364 0 0 0
65 1 2 0 12.501093429372972 33.06005446398775 26.493604882221504 0 0 0
61 1 1 0 12.55149281470643 32.70765122967361 24.93721669418039 0 0 0
64 1 2 0 11.62676136087057 32.95115131745113 26.840565301845462 0 0 0
63 1 2 0 11.577881382572707 33.64641851843025 26.17022673883503 0 0 0
62 1 2 0 11.909186009923848 32.94570668316721 25.612850467853697 0 0 0
97 1 2 0 13.587689015624495 33.976048712511684 26.884842416330436 0 0 0
5 1 4 1 14.97809383254816 0.51704728871584 26.33605698240232 0 1 0
4 1 2 0 15.002876699925084 0.672505288749504 25.300093238073185 0 1 0
59 1 2 0 12.140557928775268 31.7329474756587 24.913523691474808 0 0 0
58 1 3 -1 11.202595486601872 31.52775953934687 24.590175842112153 0 0 0
57 1 2 0 11.473314691488985 32.42462840199305 24.62398442137218 0 0 0
31 1 3 -1 11.195496763473225 30.773350172825126 26.815488874814488 0 0 0
32 1 2 0 11.12422804770962 30.135744050772644 27.643678862754214 0 0 0
89 1 2 0 14.98541026536931 32.26022104162356 25.186460551748112 0 0 0
78 1 2 0 12.070616526661505 34.04295262423454 23.63634215087808 0 0 0
88 1 2 0 14.616704487307011 32.70355342428702 24.34169252794652 0 0 0
83 1 3 -1 13.070929573854203 34.51214287796102 24.465421497201238 0 0 0
33 1 2 0 11.961307811749663 30.054734165379255 28.057087839851864 0 0 0
87 1 4 1 14.789143913017538 33.62138829288249 24.721503634214752 0 0 0
54 1 4 1 12.935564872126841 32.098566893597074 23.99740294923498 0 0 0
55 1 2 0 12.565172102025324 32.605100591292505 23.25859237724111 0 0 0
84 1 2 0 12.852728126627222 33.5732041698418 24.362575828414744 0 0 0
86 1 2 0 14.160527783355914 33.52234851966095 23.899203775229978 0 0 0
85 1 2 0 13.312096471471746 33.16773082791586 23.577131424625936 0 0 0
91 1 3 -1 13.849261322234641 32.863302066802774 25.16545602313678 0 0 0
53 1 3 -1 13.12197997108865 31.270823994153425 23.528061629299962 0 0 0
45 1 4 1 13.482290496193787 30.722871464562136 27.828407603099585 0 0 0
46 1 3 -1 12.946959631750394 29.97033222503213 27.975202911138954 0 0 0
90 1 2 0 14.10603060488262 31.994342861393683 24.864725816857995 0 0 0
52 1 2 0 13.377556676212523 31.230410213962102 24.52330746718733 0 0 0
50 1 3 -1 12.146854521648134 30.637236203290655 25.421847909285898 0 0 0
49 1 2 0 12.256215732508158 29.939920146161395 26.024826248971745 0 0 0
51 1 4 1 12.871606807485795 30.52251895537687 24.869479141871647 0 0 0
92 1 2 0 13.647314307854941 33.71961280025059 24.97264278767199 0 0 0
93 1 2 0 13.92564567765058 34.22664014249494 25.749671268687067 0 0 0
94 1 2 0 14.678853515969914 33.882110682862255 26.152563329085083 0 0 0
95 1 4 1 14.338965970174847 32.99818925103045 26.43180892103538 0 0 0
44 1 2 0 13.762695600172117 30.319385982783658 28.682411766496468 0 0 0
48 1 4 1 11.877173353048054 29.48713109067352 26.94117849017966 0 0 0
47 1 2 0 12.83886454411052 29.61935603168863 26.998863385836444 0 0 0
96 1 2 0 13.545506487495201 33.354717034882626 26.19292189705022 0 0 0
39 1 2 0 11.53017878295341 32.29845105276656 29.495405044576195 0 0 0
40 1 3 -1 12.239035241139884 32.991196994954855 29.618803971271056 0 0 0
37 1 2 0 11.780667571419844 31.194501231945022 28.92011731233063 0 0 0
38 1 4 1 10.985303202302347 31.517873332657057 29.478979448523038 0 0 0
43 1 3 -1 13.485794141067515 31.192079079991096 28.96281830468373 0 0 0
42 1 4 1 13.745111848764376 32.141433120199764 29.19673920736445 0 0 0
41 1 3 -1 12.88175383996589 32.42359150299019 29.194801500937984 0 0 0

Velocities

80 1.246642187892953 0.5223693938212569 -1.8252635523952139
82 -0.2746581006121379 -1.189963143177886 -0.9124861504836828
81 -0.3532049388200125 0.42252139331818384 -0.580323940734673
11 -1.4561387204001595 -0.5973456804247411 -0.6780726376032217
7 1.0106696184079729 1.3254342960645307 0.09355858266674479
6 1.1098041438494017 -0.6905157957458435 0.03003118609316558
8 -0.6347709034783349 0.34207932146766235 -1.1199809896316517
10 -0.06052016783378041 0.28961618546230644 1.8346419970529482
99 0.7988437099450061 -0.7190092099237666 0.17455443729132075
9 -0.18834050154565535 0.6967464435482669 1.104796253586707
98 0.6868566610710307 -1.1402014593678877 -0.010945741170713152
100 1.2816153323719264 0.8000836347622127 -0.3482657622539435
34 0.3307804437949125 1.0976072450199799 -0.6343699812283093
35 0.7323431731721521 0.34917941011951564 0.9981833626623524
17 -0.1887918951256081 -2.1530164410265615 -0.9196614010676666
15 0.2641547919359021 -1.5912296557390855 0.9930820817741594
16 -1.6105874553901387 1.5760895446761543 -1.1765432666465465
73 -0.9325105511957245 -0.7554779020277823 -1.5033950340424458
74 -2.3873541084662055 -0.7077406810883999 -0.21915121181042754
12 -1.072611876895816 0.3910012313112061 -1.024104283240461
13 -0.5671185389214575 -0.29034011294121687 0.6056528557297477
18 0.7299716147133687 -0.5856948259515866 -0.9530988737159453
19 1.511745067053468 0.1473063116746399 1.1011283164171746
75 1.4463155971321615 0.3119659505554502 -3.0163010655378226
72 -0.40286323260639045 1.5162335504841724 -0.34065599446682826
70 -1.46442851189911 -0.17244436983633793 -0.10097020359509916
71 -0.15623287028769792 -0.3003093809410192 -1.2877478495809827
29 0.7769684120547027 1.7085594880186319 -0.15535872249251687
20 0.06807735762427576 0.6242028906718585 -0.43506068280622645
26 0.6324802202066507 -1.5202113463531506 0.19644101922039492
23 -1.6987745996344066 -0.13457568436063666 2.569123709982495
22 -2.2570617864187446 -0.5007342391380452 0.22736451487575776
24 0.49425151368721165 -0.10744915861561119 -0.9398871252128658
27 0.28465458624762024 -0.6322367009309614 -0.1880994215241584
21 -0.3194812501725452 0.3399648305195933 2.408709239692214
28 -1.653409745865114 -0.16806837835377342 -0.03483103096018387
14 0.777865808014377 -0.9803632744719839 -0.0958097546812975
79 -1.462107605566859 1.212680864341111 -0.28763197930039663
56 -0.2210208909327014 -0.3590733414277489 1.5637572947081861
25 1.6102377482716475 -0.057257370638159354 -1.7334817392022634
3 -0.9204059446457225 -1.2975785160610582 1.0559628879508545
2 1.2569527066517854 0.9659848426071822 -1.6098051616150635
1 -0.7531243535769241 1.669724441972259 -0.6064750578836742
36 0.6092985184320631 0.8126120878945237 -0.5880705099109504
69 2.0229560816521603 0.15763935862623085 1.6519849262702155
68 -0.9292455040872338 -1.7373093379356017 1.6486511855750159
67 -1.3776447211350822 0.8894503103441705 -0.9611682335602262
30 0.1962903843851334 -0.0544777064710988 0.20952277043315182
76 2.0680111186370045 1.5229530406694982 0.764692505030852
77 0.045562980468275525 -0.09262957761823931 0.5890655154798368
60 -1.5872497635990508 -1.1691053036145889 1.279329071875618
66 1.3601363669892024 -0.25084866978327625 2.209461040663493
65 0.37293895183748277 0.1795205566143512 0.08445249846940237
61 -1.0750803455576927 -1.168620476627395 0.6072919517055132
64 1.748266647892224 0.4670576028289558 -0.9609019362647317
63 -0.23735802342766607 -0.6010684455948213 1.3166864631286115
62 1.1501278291114192 -0.5858730159880217 0.6773489644304699
97 -0.11054072739246233 0.6724761586662397 0.2644023238541661
5 0.5401573052258439 -0.8823907335947266 2.514710620084257
4 0.09723080588237924 0.26137749928390386 -0.11081744888777277
59 0.08997132681065005 -0.4134838623478395 -0.7680460998908827
58 1.9750287299621831 -1.0860342041591704 -0.40981467088470447
57 0.3488984941181424 0.30037831593273195 0.004189452352080166
31 0.1454652289468319 -0.4429722433159813 -1.4302487953900451
32 -2.1346999528554296 -0.18614214455226452 -0.26000066747482714
89 0.22334163206448726 -0.5229740643996523 -0.26270659107555006
78 0.2064631429245104 0.004587913196036882 1.3654328053655391
88 -0.2103298288643493 -0.6904411783554458 -1.3605132132364433
83 -0.8760857230036294 -1.6831756197108576 -0.7606952016788949
33 -1.3601287730546376 0.019255278062523258 -0.6599542635741952
87 -1.762249511667201 -1.5622511736094078 0.6623206235764204
54 -0.19211163223219 0.7588982542966387 1.297495272533896
55 -0.9583188360229427 0.2308305145410996 1.7994177451971411
84 -0.5203428926062147 -0.4662096198147988 2.3036337992628053
86 0.6179437737534029 -0.7295706685660077 -0.5343999122487239
85 -0.8297947646745598 0.726043533588625 1.0923472723645273
91 -1.3548580622768207 -0.11803026730247479 -1.379876874300973
53 1.0202326868282678 0.2152916287577434 0.4284647959857927
45 -0.20412560542561853 -0.972898793546803 -0.10744606385147129
46 -0.5501091657978965 0.8206467195977823 0.9451786792205019
90 -0.071261056589821 0.6498535434731154 1.5750188767581863
52 0.07563271669132073 -1.2015800188369556 0.225159118114098
50 1.5400129478091225 1.3147197979186835 -0.1493888100885949
49 0.19639779552890704 1.1147520696169382 -0.5149368799419952
51 -0.19955927986230548 0.9935788225494293 -2.1012367389509823
92 0.5065966363779377 0.62170226256663 1.6950113759037952
93 0.7506750229323539 -0.7310703074421693 -0.7243160356013228
94 -0.42220550262381923 -1.139388491365886 -0.43409036920728067
95 0.9733749811513207 1.5746398235412502 -0.8721734025760113
44 1.2830758301128646 -0.500779480561152 0.32977935395009544
48 -0.13915257672817632 0.29382807996255905 -1.4062176021715505
47 1.1368656513322142 0.056490288843467705 0.9749637998047516
96 -0.36406007012910124 -0.3795502018259236 -0.3643394255091834
39 -0.40430443146254574 0.47578097648227535 -0.4844348570765904
40 -0.4112033629850829 -0.262389348404339 -0.9367799776338751
37 0.2195240160801158 0.2457191991546493 0.40544978413404736
38 -0.46575450528773116 2.223497788713238 -0.8515886047653606
43 -0.6327755648365749 0.12352791886508162 -1.3089212038022575
42 2.082159553509885 0.7373883283187878 -0.8684028066831461
41 -0.23779911706915194 1.5082526805648082 0.4308154798943185

Bonds

1 1 80 81
2 1 82 83
3 1 81 82
4 1 11 12
5 1 7 8
6 1 6 7
7 1 8 9
8 1 10 11
9 1 99 100
10 1 9 10
11 1 98 99
12 1 34 35
13 1 35 36
14 1 17 18
15 1 15 16
16 1 16 17
17 1 73 74
18 1 74 75
19 1 12 13
20 1 13 14
21 1 18 19
22 1 19 20
23 1 75 76
24 1 72 73
25 1 70 71
26 1 71 72
27 1 29 30
28 1 20 21
29 1 26 27
30 1 23 24
31 1 22 23
32 1 24 25
33 1 27 28
34 1 21 22
35 1 28 29
36 1 14 15
37 1 79 80
38 1 56 57
39 1 25 26
40 1 3 4
41 1 2 3
42 1 1 2
43 1 36 37
44 1 69 70
45 1 68 69
46 1 67 68
47 1 30 31
48 1 76 77
49 1 77 78
50 1 60 61
51 1 66 67
52 1 65 66
53 1 61 62
54 1 64 65
55 1 63 64
56 1 62 63
57 1 97 98
58 1 5 6
59 1 4 5
60 1 59 60
61 1 58 59
62 1 57 58
63 1 31 32
64 1 32 33
65 1 89 90
66 1 78 79
67 1 88 89
68 1 83 84
69 1 33 34
70 1 87 88
71 1 54 55
72 1 55 56
73 1 84 85
74 1 86 87
75 1 85 86
76 1 91 92
77 1 53 54
78 1 45 46
79 1 46 47
80 1 90 91
81 1 52 53
82 1 50 51
83 1 49 50
84 1 51 52
85 1 92 93
86 1 93 94
87 1 94 95
88 1 95 96
89 1 44 45
90 1 48 49
91 1 47 48
92 1 96 97
93 1 39 40
94 1 40 41
95 1 37 38
96 1 38 39
97 1 43 44
98 1 42 43
99 1 41 42
