LAMMPS (23 Jun 2022 - Update 1)
OMP_NUM_THREADS environment is not set. Defaulting to 1 thread. (src/comm.cpp:98)
  using 1 OpenMP thread(s) per MPI task


variable        runtime equal 1000000
variable		subsample_rate equal 1000

variable		outputfile_created string '3_created.data'
variable		outputfile_relaxed string '5_relaxed.data'
variable		outputfile_selfasb string '6_a_self_assemble.lammpstrj'
variable		outputfile_trajlin string '6_b_trajlin.data'
variable		outputfile_assembled string '7_assembled.data'

units           lj
atom_style      full
dimension       3
boundary        p p p
timestep        0.005

read_data       ${outputfile_created}
read_data       3_created.data
Reading data file ...
  orthogonal box = (0 0 0) to (35 35 35)
  1 by 1 by 1 MPI processor grid
  reading atoms ...
  100 atoms
  reading velocities ...
  100 velocities
  scanning bonds ...
  1 = max bonds/atom
  reading bonds ...
  99 bonds
Finding 1-2 1-3 1-4 neighbors ...
  special bond factors lj:    0        0        0       
  special bond factors coul:  0        0        0       
     2 = max # of 1-2 neighbors
     2 = max # of 1-3 neighbors
     4 = max # of 1-4 neighbors
     6 = max # of special neighbors
  special bonds CPU = 0.000 seconds
  read_data CPU = 0.005 seconds

bond_style      fene
bond_coeff      * 30.0 1.5 1.0 1.0
special_bonds   fene
Finding 1-2 1-3 1-4 neighbors ...
  special bond factors lj:    0        1        1       
  special bond factors coul:  0        1        1       
     2 = max # of 1-2 neighbors
     6 = max # of special neighbors
  special bonds CPU = 0.000 seconds

variable        Temp equal 1.0
variable        velSeed equal 926458

velocity        all create ${Temp} ${velSeed}
velocity        all create 1 ${velSeed}
velocity        all create 1 926458

### Output
thermo_style    custom step temp density press etotal pe ke epair spcpu
thermo          1000

###########################################################################
# Soft relaxation (to remove overlaps of particles)
######################################################################

pair_style      soft 1.0
pair_coeff      * * 0.0
variable        prefactor equal ramp(0,300)
fix             rampSoft all adapt 1 pair soft a * * v_prefactor

minimize        0.0 1.0e-8 1000 100000
WARNING: Using 'neigh_modify every 1 delay 0 check yes' setting during minimization (src/min.cpp:187)
Generated 0 of 6 mixed pair_coeff terms from geometric mixing rule
Neighbor list info ...
  update every 1 steps, delay 0 steps, check yes
  max neighbors/atom: 2000, page size: 100000
  master list distance cutoff = 1.3
  ghost atom cutoff = 1.3
  binsize = 0.65, bins = 54 54 54
  1 neighbor lists, perpetual/occasional/extra = 1 0 0
  (1) pair soft, perpetual
      attributes: half, newton on
      pair build: half/bin/newton
      stencil: half/bin/3d
      bin: standard
WARNING: Communication cutoff 1.3 is shorter than a bond length based estimate of 1.7550000000000001. This may lead to errors. (src/comm.cpp:727)
Per MPI rank memory allocation (min/avg/max) = 8.346 | 8.346 | 8.346 Mbytes
   Step          Temp         Density         Press          TotEng         PotEng         KinEng         E_pair         S/CPU     
         0   1              0.0023323615  -0.0039617958   21.524174      20.039174      1.485          0              0            
       362   1              0.0023323615   0.0023090379   21.485548      20.000548      1.485          0              70534.71     
Loop time of 0.00513461 on 1 procs for 362 steps with 100 atoms

99.4% CPU use with 1 MPI tasks x 1 OpenMP threads

Minimization stats:
  Stopping criterion = force tolerance
  Energy initial, next-to-last, final = 
      20.0391741078675   20.0005480767337   20.0005480767337
  Force two-norm initial, final = 11.878422 7.9509778e-09
  Force max component initial, final = 6.6117807 1.3572772e-09
  Final line search alpha, max atom move = 1 1.3572772e-09
  Iterations, force evaluations = 362 738

MPI task timing breakdown:
Section |  min time  |  avg time  |  max time  |%varavg| %total
---------------------------------------------------------------
Pair    | 0.00021302 | 0.00021302 | 0.00021302 |   0.0 |  4.15
Bond    | 0.002354   | 0.002354   | 0.002354   |   0.0 | 45.85
Neigh   | 0.0014087  | 0.0014087  | 0.0014087  |   0.0 | 27.44
Comm    | 0.00017937 | 0.00017937 | 0.00017937 |   0.0 |  3.49
Output  | 0          | 0          | 0          |   0.0 |  0.00
Modify  | 0          | 0          | 0          |   0.0 |  0.00
Other   |            | 0.0009795  |            |       | 19.08

Nlocal:            100 ave         100 max         100 min
Histogram: 1 0 0 0 0 0 0 0 0 0
Nghost:             20 ave          20 max          20 min
Histogram: 1 0 0 0 0 0 0 0 0 0
Neighs:              0 ave           0 max           0 min
Histogram: 1 0 0 0 0 0 0 0 0 0

Total # of neighbors = 0
Ave neighs/atom = 0
Ave special neighs/atom = 1.98
Neighbor list builds = 17
Dangerous builds = 0

fix             nvtSoft all nvt temp ${Temp} ${Temp} 0.5
fix             nvtSoft all nvt temp 1 ${Temp} 0.5
fix             nvtSoft all nvt temp 1 1 0.5
run             100000
Generated 0 of 6 mixed pair_coeff terms from geometric mixing rule
WARNING: Communication cutoff 1.3 is shorter than a bond length based estimate of 1.7550000000000001. This may lead to errors. (src/comm.cpp:727)
Per MPI rank memory allocation (min/avg/max) = 7.221 | 7.221 | 7.221 Mbytes
   Step          Temp         Density         Press          TotEng         PotEng         KinEng         E_pair         S/CPU     
       362   1              0.0023323615   0.0023090379   21.485548      20.000548      1.485          0              0            
      1000   0.90989032     0.0023323615  -0.0021940042   21.776974      20.425787      1.3511871      0.00036425437  77345.624    
      2000   0.86546688     0.0023323615   0.0034714157   21.677128      20.39191       1.2852183      0.0025814786   75011.265    
      3000   0.98199538     0.0023323615   0.0028144228   21.866132      20.407869      1.4582631      0.0011756043   69422.923    
      4000   1.004495       0.0023323615  -0.0014058211   21.945624      20.453949      1.4916751      0.011986179    71118.348    
      5000   1.1222705      0.0023323615   0.0044495116   21.986385      20.319813      1.6665718      0.0050317639   73053.805    
      6000   1.0538243      0.0023323615   0.0023957538   21.985713      20.420784      1.564929       0.012100514    73975.374    
      7000   1.0210598      0.0023323615  -0.00038820026  21.904665      20.388391      1.5162738      0              75436.058    
      8000   0.94819751     0.0023323615   0.0024943091   21.747889      20.339816      1.4080733      0              75665.373    
      9000   0.92364502     0.0023323615   0.0020053029   21.724166      20.352554      1.3716129      1.7780894e-05  74751.332    
     10000   0.86685188     0.0023323615   0.00078277366  21.644879      20.357604      1.287275       0.0098636418   75037.264    
     11000   1.0057103      0.0023323615   0.00010113276  21.8558        20.362321      1.4934798      0.020705341    74584.709    
     12000   0.97901664     0.0023323615  -0.0026996968   21.871206      20.417366      1.4538397      0.0052928539   74645.677    
     13000   0.97718436     0.0023323615  -6.1641422e-06  21.963706      20.512587      1.4511188      0.025022446    74205.153    
     14000   1.0530014      0.0023323615  -0.0009993112   21.947994      20.384287      1.5637071      0.0020860456   73737.982    
     15000   0.99094527     0.0023323615   0.0011068478   21.895146      20.423592      1.4715537      0.0015091113   74681.807    
     16000   0.91285091     0.0023323615  -0.00025424173  21.87524       20.519657      1.3555836      0.0047853639   74163.031    
     17000   0.82806978     0.0023323615  -0.00054698156  21.701984      20.472301      1.2296836      0              74429.483    
     18000   1.043278       0.0023323615  -6.6143919e-05  22.003299      20.454031      1.5492679      0.0034319132   75247.076    
     19000   1.0879249      0.0023323615  -0.0017804642   21.998985      20.383416      1.6155685      0.015376175    73781.364    
     20000   1.1144506      0.0023323615   0.0025198298   22.190904      20.535944      1.6549592      0              74800.352    
     21000   1.0427751      0.0023323615   0.0011345349   22.099492      20.550971      1.548521       0.00040047813  75189.598    
     22000   1.0586695      0.0023323615   0.0017882747   22.05673       20.484606      1.5721242      0              74863.636    
     23000   1.0058426      0.0023323615  -0.0055245362   21.954628      20.460951      1.4936763      0.0027619031   74170.914    
     24000   0.98273442     0.0023323615   0.0015147357   21.862067      20.402707      1.4593606      0              74245.725    
     25000   0.95835343     0.0023323615   0.0017808774   21.937761      20.514606      1.4231548      0.00020839942  74270.583    
     26000   0.93993778     0.0023323615  -0.0021777292   21.884849      20.489042      1.3958076      0.0088889834   74738.684    
     27000   0.9308188      0.0023323615  -0.00011239942  21.842252      20.459986      1.3822659      0.021612409    73743.648    
     28000   1.0149581      0.0023323615   0.0041996387   21.906846      20.399633      1.5072129      0.0064059022   74364.1      
     29000   0.92841138     0.0023323615  -2.5398808e-05  21.987185      20.608494      1.3786909      0.0046112484   73716.141    
     30000   1.021043       0.0023323615   0.001589158    22.097958      20.581709      1.5162489      0.016799508    72206.061    
     31000   1.0465985      0.0023323615  -0.0021744286   22.037917      20.483718      1.5541987      0.0057879149   74842.193    
     32000   0.98907108     0.0023323615  -0.0015558606   22.044089      20.575318      1.4687705      0.009448173    74225.902    
     33000   1.0918536      0.0023323615  -0.0025643847   22.039275      20.417873      1.6214025      0              73361.312    
     34000   0.99801543     0.0023323615   0.0016279766   21.932339      20.450286      1.4820529      0.017384617    75874.509    
     35000   1.0352271      0.0023323615  -0.0052971711   22.076004      20.538692      1.5373122      0.00010473809  74316.599    
     36000   1.1141579      0.0023323615  -0.00093279925  22.222491      20.567966      1.6545245      0.00033678641  75571.589    
     37000   1.0369415      0.0023323615   0.00013065175  22.217841      20.677983      1.5398581      0.013788831    74598.424    
     38000   1.0515596      0.0023323615   0.0021717558   22.070766      20.5092        1.561566       0.0067894678   75191.469    
     39000   1.0238495      0.0023323615   0.00026414509  22.040141      20.519725      1.5204165      0.00044464649  73694.748    
     40000   1.0749111      0.0023323615  -0.0026849368   22.039327      20.443084      1.596243       0.012651334    72729.15     
     41000   0.99070886     0.0023323615  -0.0030385564   22.03241       20.561207      1.4712027      0.00092855646  75757.604    
     42000   0.95315224     0.0023323615   0.0019788197   21.965263      20.549832      1.4154311      0.020233689    74167.162    
     43000   1.0644183      0.0023323615  -0.0011168725   22.287172      20.706511      1.5806611      0.039694129    74103.512    
     44000   1.0253747      0.0023323615  -0.006676522    22.066233      20.543552      1.5226814      0              73390.655    
     45000   0.94179556     0.0023323615  -0.0047206018   21.970644      20.572077      1.3985664      0.019869988    73743.588    
     46000   1.0083495      0.0023323615  -0.0017646918   21.972114      20.474715      1.497399       0.00026040605  74044.193    
     47000   0.98767959     0.0023323615  -0.00080218158  22.091674      20.62497       1.4667042      0.024266258    73659.73     
     48000   1.1473449      0.0023323615  -0.0025885687   22.080512      20.376705      1.7038072      0.00065962995  74175.981    
     49000   1.0679312      0.0023323615   0.0017688272   21.970482      20.384604      1.5858779      0.014142422    75229.725    
     50000   0.9581935      0.0023323615   0.0014398836   21.955202      20.532284      1.4229173      0.0055011948   74724.247    
     51000   1.0215759      0.0023323615  -0.00093292688  21.934681      20.41764       1.5170402      0              74521.501    
     52000   0.98079591     0.0023323615   0.0040701936   21.977374      20.520892      1.4564819      0.0020862422   75153.032    
     53000   1.0090927      0.0023323615   0.0013324753   22.095438      20.596935      1.4985027      0              74146.831    
     54000   0.97519627     0.0023323615   0.0013260734   22.070151      20.621984      1.4481665      0.026885444    74966.587    
     55000   1.1805087      0.0023323615  -0.001586238    22.424088      20.671033      1.7530554      0.024690954    74798.109    
     56000   0.98387121     0.0023323615   0.0037155145   22.104425      20.643376      1.4610487      0.01435493     74493.583    
     57000   1.0723812      0.0023323615  -0.0037916262   22.122726      20.53024       1.592486       0.013635549    74913.701    
     58000   1.0152349      0.0023323615   0.00021908047  22.082827      20.575203      1.5076238      0.00077375639  74811.953    
     59000   1.1424502      0.0023323615  -0.0052108657   22.30072       20.604182      1.6965385      0.013308184    75784.927    
     60000   1.0359703      0.0023323615  -0.00097887545  22.188218      20.649802      1.538416       0.00011346294  74188.996    
     61000   1.1646839      0.0023323615  -0.002085017    22.239945      20.51039       1.7295556      0.012918477    76255.588    
     62000   1.101836       0.0023323615   0.0010338878   22.171386      20.53516       1.6362265      0.001396566    74779.22     
     63000   0.96616435     0.0023323615   0.00097550571  21.903821      20.469067      1.4347541      0.013027663    76190.459    
     64000   1.0068907      0.0023323615  -0.0020278726   22.061652      20.566419      1.4952327      0.013750276    74863.406    
     65000   0.98723233     0.0023323615   0.0022441476   22.031073      20.565033      1.46604        0.0066686189   75401.356    
     66000   1.0273881      0.0023323615  -0.0003515278   22.183579      20.657908      1.5256713      0              73634.509    
     67000   0.96528212     0.0023323615  -0.00014822656  21.9396        20.506156      1.4334439      0.010365557    75526.413    
     68000   1.069702       0.0023323615   9.4754668e-05  22.081119      20.492611      1.5885075      0.00049153926  72121.021    
     69000   1.1229502      0.0023323615   0.0011504079   22.200329      20.532748      1.6675811      0.0068454249   75406.143    
     70000   1.0062775      0.0023323615  -0.00085311964  22.094021      20.599699      1.4943221      0.013222355    74031.728    
     71000   1.0906935      0.0023323615   0.00015260357  22.145362      20.525682      1.6196798      0.018338513    74661.756    
     72000   1.010401       0.0023323615  -6.0487182e-06  22.154105      20.653659      1.5004455      0.0013793953   73543.796    
     73000   1.1177599      0.0023323615  -0.0034084797   22.254435      20.594562      1.6598735      0.00011231735  76148.715    
     74000   0.9768019      0.0023323615   0.00016143893  22.07312       20.622569      1.4505508      0.0084515956   74217.848    
     75000   1.1360996      0.0023323615   0.002159116    22.161595      20.474487      1.6871079      0.0089909162   74967.374    
     76000   0.97379329     0.0023323615  -0.00068458621  21.988928      20.542845      1.446083       0              74158.131    
     77000   0.94876793     0.0023323615  -0.0016073976   21.923496      20.514575      1.4089204      0.017745108    73991.664    
     78000   0.83947996     0.0023323615  -0.00062768559  21.726727      20.480099      1.2466277      0.0054510099   74413.499    
     79000   1.0090614      0.0023323615  -0.00080262643  22.068192      20.569736      1.4984562      0.00023011166  75575.485    
     80000   1.1217643      0.0023323615  -0.0038177864   22.367902      20.702082      1.66582        0.032902439    74761.017    
     81000   1.0240158      0.0023323615   0.00023547123  22.031597      20.510933      1.5206635      0.0068767308   74257.049    
     82000   1.003236       0.0023323615  -0.0022802982   21.894199      20.404393      1.4898055      0.019136282    73413.111    
     83000   1.0554159      0.0023323615   0.004011718    22.104562      20.537269      1.5672927      0.0080869707   72939.242    
     84000   0.83527346     0.0023323615  -0.0034122221   21.874648      20.634267      1.2403811      0.0030083664   74381.058    
     85000   1.036002       0.0023323615   0.0013573923   21.962923      20.42446       1.5384629      0.015709144    74950.096    
     86000   0.9432002      0.0023323615  -0.0032183248   21.913588      20.512936      1.4006523      0.013730309    74793.958    
     87000   0.95566008     0.0023323615  -0.00049614223  21.91653       20.497375      1.4191552      0.0035862035   73980.366    
     88000   0.93373351     0.0023323615  -0.00097093893  21.870485      20.483891      1.3865943      0.0018212145   73774.386    
     89000   0.9684944      0.0023323615  -0.00047342045  21.973429      20.535215      1.4382142      0.00087524744  74005.989    
     90000   0.98293324     0.0023323615  -0.0032204602   22.050919      20.591263      1.4596559      0.015353933    75187.953    
     91000   1.0832827      0.0023323615   0.0048517083   22.11977       20.511095      1.6086749      0.0052867789   76119.339    
     92000   0.85899662     0.0023323615  -0.0013049519   21.765697      20.490087      1.27561        0.0024124001   75176.343    
     93000   0.96176266     0.0023323615  -4.4223672e-05  21.874222      20.446004      1.4282176      0.0045653365   75723.644    
     94000   0.96019503     0.0023323615   0.00024459347  21.944954      20.519064      1.4258896      3.8053462e-05  75061.917    
     95000   0.94702149     0.0023323615  -0.0033658915   21.86315       20.456823      1.4063269      0              75810.718    
     96000   0.91119348     0.0023323615  -0.0013197298   21.825018      20.471896      1.3531223      0.00043282989  74369.696    
     97000   1.0016687      0.0023323615  -0.0019514304   22.013024      20.525546      1.487478       0.0048369955   73959.049    
     98000   1.02143        0.0023323615  -0.0057874974   22.177965      20.661142      1.5168235      0              73002.99     
     99000   1.032786       0.0023323615   0.0018228259   21.975336      20.441649      1.5336871      7.1595851e-05  75895.164    
    100000   1.0594928      0.0023323615   0.0036169719   22.011024      20.437677      1.5733468      0.00032948157  74429.982    
    100362   1.1904942      0.0023323615  -0.00089755607  22.316856      20.548972      1.7678839      0.00063845255  73955.733    
Loop time of 1.3432 on 1 procs for 100000 steps with 100 atoms

Performance: 32161946.263 tau/day, 74448.950 timesteps/s
99.4% CPU use with 1 MPI tasks x 1 OpenMP threads

MPI task timing breakdown:
Section |  min time  |  avg time  |  max time  |%varavg| %total
---------------------------------------------------------------
Pair    | 0.049105   | 0.049105   | 0.049105   |   0.0 |  3.66
Bond    | 0.12665    | 0.12665    | 0.12665    |   0.0 |  9.43
Neigh   | 0.80251    | 0.80251    | 0.80251    |   0.0 | 59.75
Comm    | 0.054459   | 0.054459   | 0.054459   |   0.0 |  4.05
Output  | 0.0011348  | 0.0011348  | 0.0011348  |   0.0 |  0.08
Modify  | 0.276      | 0.276      | 0.276      |   0.0 | 20.55
Other   |            | 0.03335    |            |       |  2.48

Nlocal:            100 ave         100 max         100 min
Histogram: 1 0 0 0 0 0 0 0 0 0
Nghost:             60 ave          60 max          60 min
Histogram: 1 0 0 0 0 0 0 0 0 0
Neighs:             36 ave          36 max          36 min
Histogram: 1 0 0 0 0 0 0 0 0 0

Total # of neighbors = 36
Ave neighs/atom = 0.36
Ave special neighs/atom = 1.98
Neighbor list builds = 9821
Dangerous builds = 8265
unfix           nvtSoft
unfix           rampSoft
reset_timestep  0

write_data      ${outputfile_relaxed}
write_data      5_relaxed.data
System init for write_data ...
Generated 0 of 6 mixed pair_coeff terms from geometric mixing rule
WARNING: Communication cutoff 1.3 is shorter than a bond length based estimate of 1.7550000000000001. This may lead to errors. (src/comm.cpp:727)
WARNING: Not all mixed pair coeffs generated from mixing. Use write_data with 'pair ij' option to store all pair coeffs. (src/write_data.cpp:309)

###########################################################################
# Full LJ with Coulomb
######################################################################

# Cutoffs and parameters:
# - Values: Marcel Verkade's Bachelor Thesis
# - Mapping to atom groups: Patrick Onck's paper
# - 1: aliphatic, 2: aromatic, 3: anion, 4: cation
# pair_style	lj/cut/coul/cut <lj_cut_global> <coul_cut_global>
# pair_coeff	<type_1>  <type_2>  <eps>  <sigma>  <r_cut_lj>  <r_cut_coul>

# Problem: Onck's model is much more complex, and Marcel has no sigma reported
# Using sigma=1 randomly

variable		glob_ljeps equal 1.0
variable		glob_ljsig 	equal 1.0
variable		glob_coulcut equal 10.0
variable		att_ljcut equal 2.50
variable		rep_ljcut equal 1.12

pair_style		lj/cut/coul/cut 						${att_ljcut} 	${glob_coulcut}
pair_style		lj/cut/coul/cut 						2.5 	${glob_coulcut}
pair_style		lj/cut/coul/cut 						2.5 	10
pair_coeff		1 1 	${glob_ljeps} 	${glob_ljsig}	${att_ljcut} 	${glob_coulcut}
pair_coeff		1 1 	1 	${glob_ljsig}	${att_ljcut} 	${glob_coulcut}
pair_coeff		1 1 	1 	1	${att_ljcut} 	${glob_coulcut}
pair_coeff		1 1 	1 	1	2.5 	${glob_coulcut}
pair_coeff		1 1 	1 	1	2.5 	10
pair_coeff		1 2 	${glob_ljeps} 	${glob_ljsig}	${att_ljcut} 	${glob_coulcut}
pair_coeff		1 2 	1 	${glob_ljsig}	${att_ljcut} 	${glob_coulcut}
pair_coeff		1 2 	1 	1	${att_ljcut} 	${glob_coulcut}
pair_coeff		1 2 	1 	1	2.5 	${glob_coulcut}
pair_coeff		1 2 	1 	1	2.5 	10
pair_coeff		1 3 	${glob_ljeps} 	${glob_ljsig}	${rep_ljcut} 	${glob_coulcut}
pair_coeff		1 3 	1 	${glob_ljsig}	${rep_ljcut} 	${glob_coulcut}
pair_coeff		1 3 	1 	1	${rep_ljcut} 	${glob_coulcut}
pair_coeff		1 3 	1 	1	1.12 	${glob_coulcut}
pair_coeff		1 3 	1 	1	1.12 	10
pair_coeff		1 4 	${glob_ljeps} 	${glob_ljsig}	${rep_ljcut} 	${glob_coulcut}
pair_coeff		1 4 	1 	${glob_ljsig}	${rep_ljcut} 	${glob_coulcut}
pair_coeff		1 4 	1 	1	${rep_ljcut} 	${glob_coulcut}
pair_coeff		1 4 	1 	1	1.12 	${glob_coulcut}
pair_coeff		1 4 	1 	1	1.12 	10
pair_coeff		2 2 	${glob_ljeps} 	${glob_ljsig}	${att_ljcut} 	${glob_coulcut}
pair_coeff		2 2 	1 	${glob_ljsig}	${att_ljcut} 	${glob_coulcut}
pair_coeff		2 2 	1 	1	${att_ljcut} 	${glob_coulcut}
pair_coeff		2 2 	1 	1	2.5 	${glob_coulcut}
pair_coeff		2 2 	1 	1	2.5 	10
pair_coeff		2 3 	${glob_ljeps} 	${glob_ljsig}	${rep_ljcut} 	${glob_coulcut}
pair_coeff		2 3 	1 	${glob_ljsig}	${rep_ljcut} 	${glob_coulcut}
pair_coeff		2 3 	1 	1	${rep_ljcut} 	${glob_coulcut}
pair_coeff		2 3 	1 	1	1.12 	${glob_coulcut}
pair_coeff		2 3 	1 	1	1.12 	10
pair_coeff		2 4 	${glob_ljeps} 	${glob_ljsig}	${att_ljcut} 	${glob_coulcut}
pair_coeff		2 4 	1 	${glob_ljsig}	${att_ljcut} 	${glob_coulcut}
pair_coeff		2 4 	1 	1	${att_ljcut} 	${glob_coulcut}
pair_coeff		2 4 	1 	1	2.5 	${glob_coulcut}
pair_coeff		2 4 	1 	1	2.5 	10
pair_coeff		3 3 	${glob_ljeps} 	${glob_ljsig}	${rep_ljcut} 	${glob_coulcut}
pair_coeff		3 3 	1 	${glob_ljsig}	${rep_ljcut} 	${glob_coulcut}
pair_coeff		3 3 	1 	1	${rep_ljcut} 	${glob_coulcut}
pair_coeff		3 3 	1 	1	1.12 	${glob_coulcut}
pair_coeff		3 3 	1 	1	1.12 	10
pair_coeff		3 4 	${glob_ljeps} 	${glob_ljsig}	${att_ljcut} 	${glob_coulcut}
pair_coeff		3 4 	1 	${glob_ljsig}	${att_ljcut} 	${glob_coulcut}
pair_coeff		3 4 	1 	1	${att_ljcut} 	${glob_coulcut}
pair_coeff		3 4 	1 	1	2.5 	${glob_coulcut}
pair_coeff		3 4 	1 	1	2.5 	10
pair_coeff		4 4 	${glob_ljeps} 	${glob_ljsig}	${rep_ljcut} 	${glob_coulcut}
pair_coeff		4 4 	1 	${glob_ljsig}	${rep_ljcut} 	${glob_coulcut}
pair_coeff		4 4 	1 	1	${rep_ljcut} 	${glob_coulcut}
pair_coeff		4 4 	1 	1	1.12 	${glob_coulcut}
pair_coeff		4 4 	1 	1	1.12 	10


fix             noDriftRot 	all momentum 10 linear 1 1 1 angular
fix             nvt1 		all nvt temp ${Temp} ${Temp} 0.5
fix             nvt1 		all nvt temp 1 ${Temp} 0.5
fix             nvt1 		all nvt temp 1 1 0.5

# dump          assemble 	all custom 1000 				${outputfile_selfasb} id type xu yu zu vx vy vz
dump            lindump 	all custom ${subsample_rate} 	${outputfile_trajlin} id type xu yu zu vx vy vz
dump            lindump 	all custom 1000 	${outputfile_trajlin} id type xu yu zu vx vy vz
dump            lindump 	all custom 1000 	6_b_trajlin.data id type xu yu zu vx vy vz

run             ${runtime}
run             1000000
Generated 0 of 6 mixed pair_coeff terms from geometric mixing rule
Neighbor list info ...
  update every 1 steps, delay 10 steps, check yes
  max neighbors/atom: 2000, page size: 100000
  master list distance cutoff = 10.3
  ghost atom cutoff = 10.3
  binsize = 5.15, bins = 7 7 7
  1 neighbor lists, perpetual/occasional/extra = 1 0 0
  (1) pair lj/cut/coul/cut, perpetual
      attributes: half, newton on
      pair build: half/bin/newton
      stencil: half/bin/3d
      bin: standard
Per MPI rank memory allocation (min/avg/max) = 7.712 | 7.712 | 7.712 Mbytes
   Step          Temp         Density         Press          TotEng         PotEng         KinEng         E_pair         S/CPU     
         0   1.1904942      0.0023323615  -0.0014698025   21.902851      20.134967      1.7678839     -0.4133671      0            
      1000   0.92467321     0.0023323615  -0.00075998799  21.084529      19.711389      1.3731397     -0.78188096     32974.239    
      2000   0.95922305     0.0023323615   0.0026644665   20.770071      19.345625      1.4244462     -1.0983473      30552.523    
      3000   1.0742248      0.0023323615  -0.0042952552   20.899021      19.303797      1.5952238     -1.1404782      25825.047    
      4000   1.0402457      0.0023323615  -0.0053010475   20.868449      19.323684      1.5447649     -1.2231696      20344.754    
      5000   1.1478792      0.0023323615  -0.00052222787  20.735166      19.030565      1.7046005     -1.500188       18268.91     
      6000   0.98624768     0.0023323615  -0.0021215691   20.482325      19.017748      1.4645778     -1.5922892      18646.038    
      7000   0.90475958     0.0023323615  -0.0013179072   19.961041      18.617473      1.343568      -1.8439159      18633.326    
      8000   1.0116326      0.0023323615   0.00062635674  20.351472      18.849197      1.5022745     -1.7137257      18599.752    
      9000   1.0576373      0.0023323615   0.0045359389   20.693535      19.122943      1.5705915     -1.376967       18494.654    
     10000   1.0890234      0.0023323615   0.0014954412   20.344392      18.727192      1.6171998     -1.7250257      18349.205    
     11000   0.87149006     0.0023323615   0.0013759489   20.05177       18.757607      1.2941627     -1.8482164      18087.306    
     12000   1.0335427      0.0023323615  -0.00074239476  20.05946       18.524649      1.5348109     -1.9736416      18223.66     
     13000   0.8626998      0.0023323615   0.0013418469   19.954188      18.673079      1.2811092     -1.8497232      18275.416    
     14000   1.0202322      0.0023323615   0.0012890038   20.077907      18.562863      1.5150449     -1.9379874      18603.86     
     15000   0.80877694     0.0023323615  -0.0017399724   19.90316       18.702126      1.2010338     -1.8651965      18550.334    
     16000   0.95258176     0.0023323615  -0.00033080198  20.327894      18.91331       1.4145839     -1.6479838      18379.747    
     17000   0.95870987     0.0023323615  -0.0032892019   20.03644       18.612756      1.4236842     -1.7651311      18423.405    
     18000   0.99291505     0.0023323615  -0.0043200453   20.374309      18.89983       1.4744789     -1.5563077      18242.605    
     19000   0.94716851     0.0023323615   0.00058569934  20.302069      18.895524      1.4065452     -1.6711798      18511.973    
     20000   0.93469792     0.0023323615  -0.0017716357   20.108885      18.720859      1.3880264     -1.6543417      18488.966    
     21000   0.88593909     0.0023323615   0.0053454621   20.313736      18.998116      1.3156195     -1.5265008      18479.584    
     22000   0.97968768     0.0023323615  -0.00051551405  20.33873       18.883894      1.4548362     -1.5490223      18318.123    
     23000   0.94010325     0.0023323615   0.0020264412   20.13464       18.738587      1.3960533     -1.7059511      18149.07     
     24000   0.88015959     0.0023323615   0.00018012533  20.017954      18.710917      1.307037      -1.8023111      18197.635    
     25000   0.9598027      0.0023323615   0.0014262502   20.118042      18.692735      1.425307      -1.8541184      18262.201    
     26000   1.0044835      0.0023323615  -0.00042889785  19.996759      18.505101      1.491658      -1.9730859      18209.006    
     27000   0.91381512     0.0023323615  -0.0081743411   20.318629      18.961613      1.3570154     -1.7397213      18276.109    
     28000   0.97433043     0.0023323615   0.0022212285   20.300152      18.853271      1.4468807     -1.6655591      18188.864    
     29000   0.96147864     0.0023323615  -0.0019398726   20.673484      19.245689      1.4277958     -1.3375951      18290.178    
     30000   0.90463554     0.0023323615  -0.002738014    20.43267       19.089286      1.3433838     -1.3648533      18366.874    
     31000   0.97269074     0.0023323615   0.0021681755   20.21852       18.774074      1.4444457     -1.7115428      18113.43     
     32000   0.93091018     0.0023323615   1.6166701e-05  20.539391      19.15699       1.3824016     -1.4244231      18205.668    
     33000   0.87710411     0.0023323615  -0.0027436097   20.352657      19.050158      1.3024996     -1.4199797      18423.674    
     34000   0.93979598     0.0023323615  -0.0010763917   20.784897      19.3893        1.395597      -1.1805166      18454.652    
     35000   1.0768928      0.0023323615  -0.0011429415   20.278993      18.679807      1.5991859     -1.7386277      18084.566    
     36000   1.0245246      0.0023323615   0.0048470896   20.113271      18.591852      1.521419      -1.8378289      17874.84     
     37000   0.965468       0.0023323615   0.00083063671  19.959799      18.526079      1.43372       -1.9660847      17987.871    
     38000   1.235865       0.0023323615   0.0003309831   20.497886      18.662626      1.8352595     -1.8327059      18190.827    
     39000   1.022761       0.0023323615  -0.0063291688   20.243402      18.724602      1.5188001     -1.8643194      18254.63     
     40000   1.1382499      0.0023323615  -0.0018731419   20.408308      18.718007      1.6903011     -1.7299968      18511.77     
     41000   0.99644073     0.0023323615   0.0022659606   20.189716      18.710001      1.4797145     -1.6545026      18294.523    
     42000   0.90108153     0.0023323615   0.0018651296   20.01512       18.677014      1.3381061     -1.7619177      18510.939    
     43000   1.0099511      0.0023323615  -0.00048694331  20.148477      18.6487        1.4997774     -1.8207129      18428.6      
     44000   1.0740009      0.0023323615   0.0021908019   20.123826      18.528935      1.5948914     -1.9987843      18406.978    
     45000   0.93091316     0.0023323615  -0.0037463197   19.929387      18.546981      1.382406      -1.9533416      18372.51     
     46000   0.94468757     0.0023323615  -0.00086087869  20.057638      18.654777      1.402861      -1.8616849      18417.225    
     47000   1.0319969      0.0023323615  -0.00059119234  20.403708      18.871192      1.5325154     -1.7566847      18323.937    
     48000   1.078655       0.0023323615   0.00037608478  20.352539      18.750736      1.6018026     -1.7817858      18480.631    
     49000   1.0708348      0.0023323615   0.0013628752   20.644214      19.054025      1.5901896     -1.498886       18428.297    
     50000   0.96613442     0.0023323615  -0.0034255922   20.32096       18.88625       1.4347096     -1.6131343      18671.301    
     51000   1.1209201      0.0023323615  -0.0023968781   20.233606      18.56904       1.6645663     -1.8572216      18587.705    
     52000   1.0276519      0.0023323615   0.00011351773  20.300253      18.77419       1.5260631     -1.7429063      18370.255    
     53000   1.1159578      0.0023323615  -0.0020877029   20.382839      18.725642      1.6571973     -1.7876424      18412.418    
     54000   0.93521642     0.0023323615  -0.0017589473   20.485559      19.096763      1.3887964     -1.3669079      18388.168    
     55000   1.0450609      0.0023323615   9.4755447e-05  20.344881      18.792966      1.5519154     -1.6913326      18393.43     
     56000   1.0433969      0.0023323615  -0.0033399562   20.423301      18.873857      1.5494444     -1.6004476      18414.918    
     57000   1.0591496      0.0023323615   0.0045046992   20.855409      19.282572      1.5728372     -1.3871772      18362.445    
     58000   0.94053946     0.0023323615   0.0045451781   20.300857      18.904156      1.3967011     -1.6655505      18300.902    
     59000   1.0959289      0.0023323615   0.0018620409   20.427923      18.800469      1.6274543     -1.63604        18270.011    
     60000   1.0222258      0.0023323615  -0.0043263525   20.258814      18.740809      1.5180053     -1.7316145      18264.34     
     61000   0.92471745     0.0023323615   0.0024779204   20.119013      18.745808      1.3732054     -1.6304047      18028.735    
     62000   0.96342966     0.0023323615  -0.0015833909   19.998244      18.567551      1.4306931     -1.985784       18097.492    
     63000   0.94108533     0.0023323615   0.0019351716   19.976518      18.579007      1.3975117     -1.8273757      18031.275    
     64000   0.9186198      0.0023323615  -0.00081216837  20.133294      18.769143      1.3641504     -1.7941881      18016.619    
     65000   1.013061       0.0023323615   0.0012895708   20.289233      18.784837      1.5043956     -1.7764601      18002.035    
     66000   0.9128333      0.0023323615  -0.0018053561   20.093998      18.73844       1.3555574     -1.7321937      18008.638    
     67000   1.0823889      0.0023323615  -0.0045978329   20.426171      18.818824      1.6073475     -1.6957055      18070.772    
     68000   1.0310002      0.0023323615  -0.005774115    20.583288      19.052253      1.5310353     -1.4996432      18053.828    
     69000   1.1088566      0.0023323615  -0.0010321907   20.644503      18.997851      1.6466521     -1.5542161      18390.221    
     70000   0.89569342     0.0023323615  -0.00061697294  20.293671      18.963566      1.3301047     -1.4158152      18168.509    
     71000   0.94599574     0.0023323615   0.0017410745   20.125587      18.720783      1.4048037     -1.8100365      18148.028    
     72000   0.92774431     0.0023323615  -0.0004019979   20.321268      18.943568      1.3777003     -1.6063539      18031.975    
     73000   0.83892251     0.0023323615   0.0063923579   20.344323      19.098523      1.2457999     -1.5077313      18267.416    
     74000   1.0614901      0.0023323615  -0.0024815205   20.499364      18.923051      1.5763129     -1.576641       18284.047    
     75000   0.94874867     0.0023323615   0.0018875771   20.118516      18.709624      1.4088918     -1.7885528      18184.708    
     76000   1.1350604      0.0023323615   0.00043664208  20.486145      18.80058       1.6855647     -1.7302604      18084.74     
     77000   0.9731174      0.0023323615  -0.0015431112   20.204795      18.759716      1.4450793     -1.8072446      18107.769    
     78000   0.98166785     0.0023323615  -0.0048637023   20.203244      18.745467      1.4577768     -1.7877638      18020.828    
     79000   0.84718502     0.0023323615   0.00012154738  20.167523      18.909454      1.2580698     -1.7300832      18272.813    
     80000   0.98059645     0.0023323615  -6.9009509e-05  20.189698      18.733513      1.4561857     -1.7410724      18320.338    
     81000   1.0385489      0.0023323615  -0.00073641165  20.29101       18.748765      1.5422452     -1.7041187      18187.392    
     82000   1.1080766      0.0023323615   0.0025470388   20.410981      18.765488      1.6454938     -1.6749228      18056.787    
     83000   1.0354582      0.0023323615  -0.00052971233  20.443073      18.905418      1.5376554     -1.5842261      18241.352    
     84000   1.1080977      0.0023323615  -0.0039521954   20.858862      19.213337      1.6455251     -1.4719934      18147.021    
     85000   0.94402011     0.0023323615   0.0012196288   20.461641      19.059771      1.4018699     -1.5773408      18145.022    
     86000   1.01504        0.0023323615  -0.00044401233  20.325678      18.818344      1.5073344     -1.6848445      18324.93     
     87000   1.0869785      0.0023323615   0.0025711038   20.566439      18.952276      1.614163      -1.5513979      18404.08     
     88000   1.0208594      0.0023323615  -0.0039112474   20.132003      18.616027      1.5159762     -1.8496133      18259.041    
     89000   0.97356657     0.0023323615   0.00028666329  20.462316      19.016569      1.4457463     -1.5336772      18244.68     
     90000   0.9273284      0.0023323615  -0.0010412603   20.204008      18.826926      1.3770827     -1.6162358      18129.907    
     91000   0.89437813     0.0023323615  -0.00038418521  20.287609      18.959457      1.3281515     -1.4653348      18089.699    
     92000   0.93080015     0.0023323615   0.00087894351  20.219126      18.836888      1.3822382     -1.7026829      18139.937    
     93000   1.052243       0.0023323615  -0.00066482539  20.333328      18.770748      1.5625808     -1.7272301      18018.229    
     94000   0.97228546     0.0023323615   0.0058871348   20.416943      18.973099      1.4438439     -1.560729       18047.501    
     95000   1.1290572      0.0023323615   0.0033492209   20.614825      18.938175      1.67665       -1.6161815      18064.901    
     96000   0.85857091     0.0023323615  -0.00091820879  20.338103      19.063125      1.2749778     -1.6795792      18103.584    
     97000   1.0690253      0.0023323615  -0.0016413479   20.452049      18.864546      1.5875026     -1.6407363      18274.409    
     98000   0.98082871     0.0023323615  -0.00014451228  19.992128      18.535597      1.4565306     -2.0141433      18349.232    
     99000   1.0876117      0.0023323615   0.0058124425   20.364112      18.749008      1.6151033     -1.7337224      18235.48     
    100000   0.99127762     0.0023323615  -0.0039653688   20.41991       18.947862      1.4720473     -1.6666088      18424.157    
    101000   1.1532738      0.0023323615  -0.0036042875   20.725099      19.012487      1.7126116     -1.5824767      18476.279    
    102000   1.0805613      0.0023323615  -0.00024397442  20.510385      18.905751      1.6046336     -1.5936221      18446.419    
    103000   0.97620731     0.0023323615   0.0033922217   20.082652      18.632984      1.4496679     -1.7932812      18467.357    
    104000   0.85781537     0.0023323615  -0.004861386    20.26841       18.994554      1.2738558     -1.6066704      18261.563    
    105000   1.0272502      0.0023323615  -0.0013045112   20.335251      18.809784      1.5254666     -1.7918694      18380.413    
    106000   1.1243948      0.0023323615  -0.0025934133   20.824899      19.155173      1.6697263     -1.5786512      18302.369    
    107000   1.0179765      0.0023323615  -0.00092607762  20.507385      18.99569       1.5116951     -1.6084045      18329.513    
    108000   0.90493034     0.0023323615  -0.0038981038   20.260409      18.916588      1.3438216     -1.5878836      18467.559    
    109000   0.89537084     0.0023323615   0.0014375748   20.089001      18.759375      1.3296257     -1.7862562      18248.045    
    110000   0.99774189     0.0023323615   0.0059539117   20.10066       18.619013      1.4816467     -1.921015       18152.728    
    111000   1.1466522      0.0023323615   0.004878911    20.484956      18.782178      1.7027785     -1.841322       18072.172    
    112000   1.1223294      0.0023323615  -7.4113046e-06  20.577743      18.911084      1.6666592     -1.6709838      18092.011    
    113000   1.0299415      0.0023323615  -0.0013697594   20.214551      18.685088      1.5294631     -1.8068197      18075.805    
    114000   1.0337163      0.0023323615  -2.9117483e-05  20.23235       18.697282      1.5350686     -1.7725535      18049.061    
    115000   1.0691357      0.0023323615  -0.0007081491   20.122975      18.535309      1.5876665     -1.950104       18091.26     
    116000   1.0101646      0.0023323615  -0.00013788456  20.330836      18.830742      1.5000944     -1.8057547      17928.836    
    117000   0.98525321     0.0023323615   0.0048533219   20.281365      18.818264      1.463101      -1.7425064      17974.69     
    118000   1.0126971      0.0023323615  -0.0016259849   20.017541      18.513686      1.5038553     -1.9699393      18241.485    
    119000   1.0553362      0.0023323615   0.0020304755   20.319034      18.751859      1.5671742     -1.7793451      18148.681    
    120000   1.1009346      0.0023323615   0.0029714161   20.368745      18.733858      1.6348878     -1.8907407      17927.416    
    121000   0.90555503     0.0023323615   0.0025789405   20.008859      18.66411       1.3447492     -1.8461194      17973.932    
    122000   1.0366352      0.0023323615  -0.0021202958   20.368179      18.828776      1.5394033     -1.7611649      18062.885    
    123000   1.0326274      0.0023323615  -0.0043977919   20.405103      18.871651      1.5334517     -1.6609632      18007.342    
    124000   1.0274931      0.0023323615   0.0016721537   20.186545      18.660718      1.5258272     -1.8230657      18095.461    
    125000   1.0181321      0.0023323615  -2.5529618e-05  20.330231      18.818305      1.5119261     -1.7330122      18088.253    
    126000   1.1841868      0.0023323615   0.0034845545   20.559473      18.800955      1.7585174     -1.8091179      18067.027    
    127000   0.99573962     0.0023323615  -0.0020813989   20.194073      18.715399      1.4786733     -1.7551738      18021.355    
    128000   0.904081       0.0023323615  -0.00039922726  19.993331      18.65077       1.3425603     -1.7695411      18106.477    
    129000   0.9088347      0.0023323615  -0.00046231333  20.152275      18.802655      1.3496195     -1.7622345      18057.228    
    130000   1.0095113      0.0023323615   0.0027006123   19.963514      18.46439       1.4991242     -1.9959205      18121.942    
    131000   0.96239027     0.0023323615   0.00053900798  20.159061      18.729911      1.4291495     -1.8223528      18068.875    
    132000   0.9469329      0.0023323615  -0.0031442333   20.384184      18.977989      1.4061953     -1.7169427      18122.991    
    133000   0.86410021     0.0023323615   0.001423913    20.024326      18.741137      1.2831888     -1.7706674      18176.509    
    134000   0.9044916      0.0023323615  -0.0010677871   20.265795      18.922625      1.34317       -1.6672652      18298.9      
    135000   0.9103342      0.0023323615  -0.0019162514   19.940365      18.588519      1.3518463     -1.9243684      18271.097    
    136000   1.0012671      0.0023323615   0.0011522921   20.367359      18.880477      1.4868816     -1.7027675      18208.102    
    137000   0.85935719     0.0023323615   0.0023056584   20.247322      18.971176      1.2761454     -1.5483692      18475.428    
    138000   0.91707997     0.0023323615  -0.0028077155   20.190044      18.82818       1.3618638     -1.7121783      18325.825    
    139000   1.0474431      0.0023323615   0.00021164933  20.713085      19.157632      1.5554529     -1.53775        18395.003    
    140000   0.98022495     0.0023323615  -0.00034524981  20.539745      19.084111      1.455634      -1.6029963      18296.666    
    141000   0.99478626     0.0023323615  -0.0027503365   20.189343      18.712085      1.4772576     -1.7179311      18231.706    
    142000   0.83796004     0.0023323615   0.002523033    20.022159      18.777788      1.2443707     -1.734399       18136.48     
    143000   1.0943679      0.0023323615   0.0025899681   20.68197       19.056834      1.6251364     -1.4526927      18065.971    
    144000   0.90368373     0.0023323615   0.0039891765   20.24723       18.905259      1.3419703     -1.6171561      18114.65     
    145000   0.8956356      0.0023323615   0.001433816    20.090183      18.760165      1.3300189     -1.781085       18160.965    
    146000   0.87402617     0.0023323615   0.00059859303  19.74247       18.444541      1.2979289     -2.0778261      18159.676    
    147000   0.89652671     0.0023323615  -0.0012230387   20.014495      18.683153      1.3313422     -1.9342045      17974.211    
    148000   0.89937083     0.0023323615  -0.00076125748  20.233637      18.898072      1.3355657     -1.7005762      18036.915    
    149000   1.0877602      0.0023323615  -0.0010253284   20.256119      18.640795      1.6153239     -1.9143886      17958.326    
    150000   0.96831178     0.0023323615   8.7616975e-06  20.399979      18.962036      1.437943      -1.598225       18142.895    
    151000   1.0170581      0.0023323615   0.0072133257   20.238297      18.727965      1.5103313     -1.8136276      18180.598    
    152000   1.0109408      0.0023323615   0.0010416497   20.419513      18.918266      1.5012471     -1.5651537      18108.836    
    153000   0.90220037     0.0023323615   0.00042052887  20.109931      18.770164      1.3397676     -1.5979775      18280.53     
    154000   1.0456808      0.0023323615  -0.0040240783   20.299866      18.74703       1.5528359     -1.8273459      18201.193    
    155000   1.0285948      0.0023323615  -0.00075155326  20.243335      18.715872      1.5274633     -1.9761767      18134.977    
    156000   0.99668109     0.0023323615  -0.00056940642  20.298414      18.818343      1.4800714     -1.6641793      18100.981    
    157000   0.99135546     0.0023323615  -0.0021748514   20.401434      18.929271      1.4721629     -1.770782       18031.825    
    158000   1.2175105      0.0023323615   0.0034285542   20.827527      19.019524      1.8080031     -1.4944403      18057.27     
    159000   0.94765729     0.0023323615   0.0020669709   20.19643       18.789159      1.4072711     -1.7559007      18217.268    
    160000   0.99962026     0.0023323615   0.001549319    20.053133      18.568697      1.4844361     -1.8054911      18274.747    
    161000   0.99440889     0.0023323615   0.0027609009   20.448174      18.971477      1.4766972     -1.6059318      18328.591    
    162000   1.0465624      0.0023323615   0.0026086292   20.334142      18.779997      1.5541452     -1.7247498      18245.68     
    163000   0.88565825     0.0023323615   0.00028539119  20.050853      18.73565       1.3152025     -1.7258774      18189.275    
    164000   1.0568752      0.0023323615  -0.0034747334   20.174382      18.604922      1.5694597     -1.9052949      18124.206    
    165000   0.93125455     0.0023323615   0.0019249601   20.096792      18.713879      1.382913      -1.8170076      18156.129    
    166000   0.92990187     0.0023323615  -0.0040040259   20.152742      18.771837      1.3809043     -1.7210288      18284.995    
    167000   1.0298303      0.0023323615  -3.1399508e-05  20.074802      18.545504      1.529298      -2.0021179      18142.796    
    168000   0.94355768     0.0023323615  -0.0010608919   20.214351      18.813168      1.4011832     -1.8034766      18149.602    
    169000   0.96915333     0.0023323615   0.0044343318   20.281633      18.84244       1.4391927     -1.6501118      18232.625    
    170000   0.98864624     0.0023323615   0.00060316561  20.11895       18.650811      1.4681397     -1.908211       18196.435    
    171000   1.0098185      0.0023323615   0.0026230671   20.382419      18.882839      1.4995804     -1.7266807      18088.397    
    172000   1.0318215      0.0023323615   0.00048737958  20.337729      18.805474      1.532255      -1.8577543      18253.054    
    173000   1.0111089      0.0023323615  -0.0060292918   20.482469      18.980972      1.5014968     -1.7324396      18282.258    
    174000   0.95792582     0.0023323615  -0.0012725224   20.25901       18.83649       1.4225198     -1.6406704      18345.873    
    175000   0.97961105     0.0023323615  -0.0030671239   20.015721      18.560998      1.4547224     -2.034696       18170.801    
    176000   1.0161307      0.0023323615  -0.0039052279   20.060991      18.552037      1.508954      -2.0106211      18086.981    
    177000   1.0288235      0.0023323615   0.00017109348  20.14786       18.620057      1.5278029     -1.857433       18072.156    
    178000   1.0945491      0.0023323615   0.0015046079   20.080576      18.45517       1.6254055     -1.9556794      17947.967    
    179000   1.004938       0.0023323615   0.0060515918   20.400244      18.907912      1.4923329     -1.727792       18014.235    
    180000   1.031229       0.0023323615   0.0016366469   20.469797      18.938422      1.5313751     -1.724598       18094.028    
    181000   1.0110557      0.0023323615   0.0041602694   20.017883      18.516465      1.5014177     -2.0168076      18199.268    
    182000   0.96424929     0.0023323615   0.0005644176   19.704402      18.272492      1.4319102     -2.1055186      18022.377    
    183000   1.0433342      0.0023323615   0.00043961903  20.250766      18.701415      1.5493513     -1.8557742      18012.659    
    184000   0.79294575     0.0023323615   0.00043390355  19.910835      18.73331       1.1775244     -1.815376       18059.028    
    185000   0.92675855     0.0023323615   0.0036788411   20.173888      18.797651      1.3762364     -1.7729613      18043.821    
    186000   0.90932323     0.0023323615  -0.00072492971  20.311165      18.96082       1.350345      -1.6023332      18050.87     
    187000   0.92546835     0.0023323615  -0.0052713216   20.131856      18.757536      1.3743205     -1.6767506      18048.125    
    188000   0.98784857     0.0023323615   0.00083547813  20.697767      19.230811      1.4669551     -1.3510656      18308.573    
    189000   1.2380911      0.0023323615   0.005668248    20.835489      18.996924      1.8385653     -1.4793013      18259.833    
    190000   0.94478489     0.0023323615  -0.00063392609  20.364344      18.961339      1.4030056     -1.6083778      18117.429    
    191000   1.0718671      0.0023323615  -0.0016803793   20.317943      18.72622       1.5917226     -1.7915356      18107.88     
    192000   0.90455535     0.0023323615   0.0019057838   20.100153      18.756888      1.3432647     -1.8125681      18161.157    
    193000   1.036323       0.0023323615   0.002493262    20.27568       18.73674       1.5389396     -1.7604424      18072.29     
    194000   0.86531398     0.0023323615   0.0049528412   19.849342      18.564351      1.2849913     -1.8409017      18045.71     
    195000   1.1466317      0.0023323615   0.0028625283   20.399019      18.696271      1.702748      -1.809095       18472.545    
    196000   1.0513212      0.0023323615   0.0013573324   20.3431        18.781888      1.561212      -1.6907165      18555.389    
    197000   0.98387563     0.0023323615   0.0022630864   20.524972      19.063916      1.4610553     -1.4773004      18617.654    
    198000   0.98921652     0.0023323615   0.00055298054  20.350113      18.881126      1.4689865     -1.6964238      18611.353    
    199000   1.1567108      0.0023323615  -0.002695806    20.540827      18.823111      1.7177156     -1.7376645      18600.317    
    200000   1.0446336      0.0023323615   9.8945609e-05  20.534063      18.982782      1.5512809     -1.4408505      18624.598    
    201000   1.103748       0.0023323615  -0.001985966    20.678971      19.039906      1.6390657     -1.5419775      18646.191    
    202000   1.0619034      0.0023323615   0.00092372572  20.468604      18.891677      1.5769265     -1.5935723      18713.168    
    203000   0.97536877     0.0023323615  -0.0010279964   20.051644      18.603221      1.4484226     -1.772592       18613.398    
    204000   1.0454682      0.0023323615   0.00014441351  20.502348      18.949828      1.5525203     -1.5069771      18442.107    
    205000   1.0668104      0.0023323615  -0.00061393961  20.679232      19.095018      1.5842134     -1.5408748      18010.978    
    206000   1.0749779      0.0023323615  -0.0015148709   20.449294      18.852952      1.5963421     -1.7318453      18145.332    
    207000   1.1112516      0.0023323615   0.0018426355   20.24179       18.591582      1.6502087     -1.8764967      18075.727    
    208000   0.94700932     0.0023323615   0.00031699171  20.110688      18.704379      1.4063088     -1.7334405      18156.634    
    209000   1.032854       0.0023323615   0.0059112483   20.333196      18.799408      1.5337882     -1.7188452      18139.551    
    210000   0.99618895     0.0023323615   0.00034691567  20.417862      18.938522      1.4793406     -1.6089981      18170.11     
    211000   1.0540714      0.0023323615  -0.0019042172   20.567463      19.002167      1.565296      -1.525631       18048.294    
    212000   1.0441687      0.0023323615   0.0066792158   20.458312      18.907721      1.5505905     -1.5505944      17986.561    
    213000   0.93765737     0.0023323615   0.0015252917   20.479388      19.086967      1.3924212     -1.327289       18258.998    
    214000   1.0472316      0.0023323615   0.00026575423  20.581065      19.025926      1.5551389     -1.4533846      18269.315    
    215000   0.91725038     0.0023323615   0.0012103244   20.487245      19.125128      1.3621168     -1.4829503      18186.153    
    216000   0.91939029     0.0023323615  -0.00066949942  20.065895      18.7006        1.3652946     -1.8076974      18126.332    
    217000   1.0093021      0.0023323615   6.6551677e-06  20.599859      19.101045      1.4988137     -1.4000962      18147.48     
    218000   0.90121444     0.0023323615   0.0026286522   20.102043      18.76374       1.3383034     -1.7367685      18190.535    
    219000   1.0167092      0.0023323615   0.0035079987   20.233592      18.723779      1.5098132     -1.8679472      18271.284    
    220000   0.97099671     0.0023323615  -0.0033052      20.443485      19.001555      1.4419301     -1.6400481      18068.509    
    221000   1.0600726      0.0023323615   0.0054225147   20.305833      18.731626      1.5742078     -1.7066546      18415.54     
    222000   1.0487343      0.0023323615  -0.0011096353   20.121835      18.564464      1.5573705     -1.8453451      18274.63     
    223000   0.94836241     0.0023323615   0.0027043992   20.407683      18.999365      1.4083182     -1.6165146      18520.261    
    224000   0.9702336      0.0023323615  -0.0037898043   20.225809      18.785012      1.4407969     -1.8105414      18514.489    
    225000   1.0699521      0.0023323615   0.00254915     20.389121      18.800242      1.5888788     -1.6830475      18476.916    
    226000   1.0563033      0.0023323615  -0.00030720843  20.400001      18.831391      1.5686104     -1.7143243      18527.281    
    227000   0.8789545      0.0023323615   0.00094085133  20.21245       18.907202      1.3052474     -1.6642877      18520.976    
    228000   0.95030602     0.0023323615  -0.0060501449   20.539564      19.12836       1.4112044     -1.5328493      18516.997    
    229000   0.96223126     0.0023323615  -0.00046803614  20.294283      18.865369      1.4289134     -1.6777576      18358.203    
    230000   1.0098804      0.0023323615   0.0017039614   20.103797      18.604125      1.4996725     -1.8630663      18422.004    
    231000   0.97542284     0.0023323615  -0.0010025903   20.070007      18.621504      1.4485029     -1.8619266      18439.027    
    232000   1.0063262      0.0023323615  -0.006262723    20.044801      18.550407      1.4943944     -1.9583907      18412.907    
    233000   1.1514937      0.0023323615   0.0014415203   20.475758      18.76579       1.7099682     -1.6983617      18385.783    
    234000   1.0392613      0.0023323615  -0.00093321107  19.992439      18.449136      1.5433031     -1.9350132      18344.413    
    235000   1.0894546      0.0023323615   0.0011628971   20.37881       18.76097       1.61784       -1.9365615      18411.056    
    236000   1.0173955      0.0023323615  -0.00034620912  20.470824      18.959992      1.5108323     -1.4929065      18330.715    
    237000   1.0646748      0.0023323615   0.0044504194   20.618315      19.037273      1.5810421     -1.5323855      18071.498    
    238000   1.104085       0.0023323615   0.0021223705   20.69827       19.058704      1.6395663     -1.4520726      18165.45     
    239000   0.9515275      0.0023323615  -0.0045500284   20.372714      18.959696      1.4130183     -1.5495685      18288.439    
    240000   0.98793727     0.0023323615  -0.0029225598   20.428684      18.961597      1.4670868     -1.5886232      18168.869    
    241000   1.0254511      0.0023323615  -6.4725637e-05  20.351888      18.829093      1.5227949     -1.725036       18147.955    
    242000   0.90089753     0.0023323615   0.0009531311   20.329437      18.991604      1.3378328     -1.5873127      18030.946    
    243000   1.1322543      0.0023323615   0.0019787984   20.435499      18.754101      1.6813977     -1.731561       18097.571    
    244000   0.83259031     0.0023323615  -0.0028112389   20.624518      19.388122      1.2363966     -1.3549584      18149.093    
    245000   1.0438211      0.0023323615   0.00036070578  20.385619      18.835544      1.5500744     -1.5480105      18226.103    
    246000   0.85822677     0.0023323615   0.00070916864  20.23492       18.960453      1.2744668     -1.6466127      18105.995    
    247000   0.97671931     0.0023323615   0.0026025296   20.336075      18.885647      1.4504282     -1.6869278      18179.975    
    248000   0.84219216     0.0023323615  -0.00011503625  19.8412        18.590544      1.2506554     -1.9535218      18122.353    
    249000   1.1152309      0.0023323615  -0.0024509273   20.437083      18.780965      1.6561179     -1.7100799      18177.539    
    250000   1.0720625      0.0023323615  -0.00016093889  20.62561       19.033597      1.5920128     -1.4862324      18189.464    
    251000   0.89946245     0.0023323615  -0.0018332273   20.229773      18.894071      1.3357017     -1.5796362      18196.63     
    252000   1.0770039      0.0023323615   0.0033437802   20.302985      18.703634      1.5993508     -1.8544442      18154.253    
    253000   1.0093088      0.0023323615   0.00095099628  20.379527      18.880703      1.4988236     -1.715386       18498.757    
    254000   1.0292967      0.0023323615   0.0016577688   20.10165       18.573145      1.5285055     -1.8836357      18355.748    
    255000   1.004116       0.0023323615   0.0063604041   20.284842      18.79373       1.4911123     -1.7390916      18280.011    
    256000   0.85650983     0.0023323615   0.0015104518   20.01876       18.746843      1.2719171     -1.7025974      18340.863    
    257000   0.94802996     0.0023323615  -0.0023778194   20.367341      18.959517      1.4078245     -1.6091286      18345.121    
    258000   0.83038898     0.0023323615   0.003048466    20.045671      18.812543      1.2331276     -1.6759629      18314.029    
    259000   0.95955035     0.0023323615   0.00054740889  20.297417      18.872485      1.4249323     -1.5499027      18043.922    
    260000   0.93565498     0.0023323615  -0.002798625    20.166719      18.777272      1.3894477     -1.6154444      18200.881    
    261000   1.0191076      0.0023323615   0.00014952292  20.185042      18.671667      1.5133747     -1.7614152      18051.947    
    262000   0.95245363     0.0023323615   0.0016995304   20.270585      18.856191      1.4143936     -1.7942624      18118.661    
    263000   1.124991       0.0023323615  -0.0025825797   20.295804      18.625192      1.6706117     -1.9140337      17997.861    
    264000   0.92756123     0.0023323615  -0.0032229948   19.996369      18.61894       1.3774284     -1.9468058      18031.988    
    265000   0.85708901     0.0023323615   6.465242e-05   19.865843      18.593066      1.2727772     -1.8190804      18055.656    
    266000   0.94820213     0.0023323615   0.0037406401   20.221416      18.813336      1.4080802     -1.7510741      18161.263    
    267000   1.0180267      0.0023323615   0.0031155379   20.558332      19.046563      1.5117697     -1.472718       18183.993    
    268000   0.92534549     0.0023323615   0.0018960321   20.005145      18.631007      1.374138      -1.9654661      18021.856    
    269000   0.99382609     0.0023323615  -0.0050436824   20.29502       18.819188      1.4758317     -1.7327421      18480.323    
    270000   1.0844951      0.0023323615   0.0023039092   20.359556      18.749081      1.6104752     -1.7602044      18396.512    
    271000   1.071537       0.0023323615  -0.0039491762   20.584351      18.993118      1.5912325     -1.6769072      18486.173    
    272000   1.008274       0.0023323615  -0.0023589297   20.493715      18.996428      1.4972869     -1.4371017      18524.08     
    273000   1.0898521      0.0023323615  -0.00040233171  20.345198      18.726768      1.6184304     -1.6796476      18469.554    
    274000   1.0806569      0.0023323615  -0.0016127249   20.367838      18.763062      1.6047755     -1.7516673      18054.151    
    275000   1.1081505      0.0023323615   0.00065403063  20.595399      18.949795      1.6456035     -1.6124639      18027.1      
    276000   0.91172236     0.0023323615  -0.0036415183   20.508722      19.154815      1.3539077     -1.4409576      18031.011    
    277000   0.99561227     0.0023323615   0.00046893382  20.416258      18.937774      1.4784842     -1.448074       18503.743    
    278000   0.84973505     0.0023323615   0.00064846662  20.146839      18.884982      1.2618566     -1.6717165      18536.481    
    279000   1.0562402      0.0023323615   0.0055542771   20.364746      18.796229      1.5685167     -1.6740098      18575.875    
    280000   1.1190726      0.0023323615  -0.0020541336   20.259546      18.597723      1.6618228     -1.8282898      18551.872    
    281000   0.88353562     0.0023323615  -0.0020730449   20.311465      18.999414      1.3120504     -1.5523886      18369.697    
    282000   1.0129527      0.0023323615   0.0032790288   20.587163      19.082929      1.5042348     -1.5224143      18096.652    
    283000   0.92169909     0.0023323615  -0.0010423743   19.874261      18.505538      1.3687231     -1.9472961      18034.015    
    284000   1.0609922      0.0023323615   0.0062849569   20.458743      18.88317       1.5755734     -1.6864234      18182.983    
    285000   0.98388311     0.0023323615  -0.0019651528   20.494603      19.033536      1.4610664     -1.4259619      18164.849    
    286000   0.96231322     0.0023323615   0.00046079688  19.880512      18.451477      1.4290351     -1.9161172      18132.812    
    287000   0.95102856     0.0023323615   0.0016472233   20.238431      18.826154      1.4122774     -1.6491373      18045.224    
    288000   0.9295589      0.0023323615  -0.0019983664   20.03691       18.656515      1.380395      -1.8860884      18181.74     
    289000   1.0517963      0.0023323615   0.004883913    20.218899      18.656981      1.5619175     -1.7518677      18412.808    
    290000   1.0290371      0.0023323615  -0.0030611586   20.446626      18.918505      1.52812       -1.6831698      18347.468    
    291000   1.0038307      0.0023323615   0.00041150723  20.041477      18.550789      1.4906885     -1.9107466      18387.131    
    292000   1.017428       0.0023323615  -0.0011405757   20.324035      18.813154      1.5108806     -1.8306236      18587.439    
    293000   1.2462623      0.0023323615  -0.0029417532   20.846051      18.995352      1.8506996     -1.5137711      18618.595    
    294000   0.90561684     0.0023323615   0.001444386    20.364243      19.019402      1.344841      -1.5700053      18590.8      
    295000   1.0094587      0.0023323615   0.00065687432  20.319794      18.820748      1.4990462     -1.7871284      18442.383    
    296000   1.07903        0.0023323615   0.0013299712   20.396473      18.794114      1.6023596     -1.7183714      18579.65     
    297000   0.98781345     0.0023323615   1.0545387e-05  20.100191      18.633288      1.466903      -1.8262995      18528.774    
    298000   0.94824772     0.0023323615  -0.0011028039   20.335149      18.927001      1.4081479     -1.6442533      18616.678    
    299000   0.90408251     0.0023323615   0.0024585088   20.024696      18.682133      1.3425625     -1.9224448      18625.505    
    300000   0.89606372     0.0023323615  -0.003455178    20.11827       18.787615      1.3306546     -1.7134749      18476.83     
    301000   1.051397       0.0023323615   0.00044082195  20.3799        18.818576      1.5613245     -1.6910713      18168.803    
    302000   0.9743682      0.0023323615   2.661607e-05   20.401797      18.95486       1.4469368     -1.6005868      18459.659    
    303000   0.98783983     0.0023323615   0.0013020102   20.165834      18.698892      1.4669422     -1.6566325      18371.326    
    304000   1.1275119      0.0023323615  -0.00253639     20.581957      18.907602      1.6743552     -1.6681212      18303.849    
    305000   0.99182023     0.0023323615   0.0037225816   20.355218      18.882365      1.472853      -1.6119309      18280.37     
    306000   1.0164564      0.0023323615  -0.0021171214   20.269453      18.760015      1.5094378     -1.7702356      18176.423    
    307000   0.88188564     0.0023323615  -0.0017356957   19.890698      18.581098      1.3096002     -1.9549205      18034.354    
    308000   1.0482473      0.0023323615  -0.0026040158   20.097424      18.540776      1.5566473     -1.912449       18079.233    
    309000   1.0045018      0.0023323615  -0.003023394    20.122767      18.631082      1.4916852     -1.7690158      17995.291    
    310000   1.11222        0.0023323615   0.0030389341   20.403063      18.751417      1.6516467     -1.7186672      18023.581    
    311000   1.0875101      0.0023323615  -0.0021454413   20.276373      18.66142       1.6149526     -1.8132349      18174.11     
    312000   1.0976366      0.0023323615   0.0044068496   20.525398      18.895407      1.6299903     -1.6787717      18147.064    
    313000   1.1159914      0.0023323615   0.00054625486  20.313554      18.656307      1.6572473     -1.7488871      18130.549    
    314000   0.92537996     0.0023323615  -0.0042337132   20.196375      18.822185      1.3741892     -1.7391568      18096.767    
    315000   0.96112022     0.0023323615  -0.00079346818  20.065401      18.638137      1.4272635     -1.9312317      17946.453    
    316000   0.90671543     0.0023323615   0.0010543312   20.193305      18.846833      1.3464724     -1.6383726      18098.526    
    317000   1.1006957      0.0023323615  -0.0012506155   20.593745      18.959212      1.6345331     -1.5993008      18354.702    
    318000   1.2203727      0.0023323615  -0.0016193256   20.727081      18.914827      1.8122535     -1.5651206      18393.773    
    319000   1.0207144      0.0023323615  -0.0034750707   20.314442      18.798681      1.5157609     -1.7034828      18500.248    
    320000   1.113254       0.0023323615  -0.0016913682   20.576355      18.923172      1.6531822     -1.5464451      18428.075    
    321000   1.0897073      0.0023323615   0.0027482515   20.171346      18.553131      1.6182153     -1.8867343      18135.689    
    322000   1.0447368      0.0023323615   0.0010889864   20.161685      18.610251      1.5514341     -1.8891814      18027.826    
    323000   1.0030431      0.0023323615   0.00411494     20.055001      18.565482      1.4895189     -1.8863439      18010.917    
    324000   1.1991304      0.0023323615  -0.0023084988   20.21723       18.436521      1.7807086     -2.0358758      18078.814    
    325000   1.0718849      0.0023323615  -0.00032903555  20.417676      18.825927      1.5917491     -1.7527767      18094.795    
    326000   0.84179518     0.0023323615   0.001769793    19.997671      18.747605      1.2500658     -1.7977679      18209.74     
    327000   0.99831497     0.0023323615  -0.00088723379  20.036187      18.553689      1.4824977     -1.8847572      18076.215    
    328000   0.99865529     0.0023323615  -0.0033881873   20.191916      18.708913      1.4830031     -1.7384871      18069.595    
    329000   1.0387989      0.0023323615   0.0037871488   20.084333      18.541716      1.5426164     -2.0333667      17943.307    
    330000   0.95522545     0.0023323615   0.0028173435   20.004391      18.585882      1.4185098     -1.8819583      17911.932    
    331000   1.0599412      0.0023323615   0.0018642567   20.236282      18.66227       1.5740127     -1.8782383      18137.841    
    332000   0.93250127     0.0023323615  -0.0029266987   20.235937      18.851173      1.3847644     -1.6801453      18355.093    
    333000   0.93351102     0.0023323615  -0.0014854096   20.054623      18.668359      1.3862639     -1.7743169      18519.842    
    334000   1.0321351      0.0023323615  -0.0015331834   20.423092      18.890372      1.5327206     -1.646214       18145.141    
    335000   1.0872816      0.0023323615   0.00078825068  20.444828      18.830214      1.6146132     -1.6452463      18328.342    
    336000   0.98482229     0.0023323615  -0.0031399066   20.229861      18.7674        1.4624611     -1.7823841      18154.828    
    337000   0.98850955     0.0023323615  -0.00073349557  20.412253      18.944317      1.4679367     -1.6723785      18166.637    
    338000   0.955705       0.0023323615  -0.0045414652   20.334921      18.915699      1.4192219     -1.6025819      18209.006    
    339000   1.1294342      0.0023323615  -0.0029898458   20.440884      18.763674      1.6772098     -1.6905466      18172.856    
    340000   1.0163513      0.0023323615   0.00070903328  20.234854      18.725572      1.5092816     -1.7553461      18136.888    
    341000   0.99023109     0.0023323615   0.0028573298   20.236199      18.765706      1.4704932     -1.7662305      18279.881    
    342000   1.0213807      0.0023323615  -0.0026806976   20.073904      18.557154      1.5167503     -1.9408072      18056.526    
    343000   1.0740782      0.0023323615  -0.0030604137   20.270358      18.675351      1.5950061     -1.7714738      17924.827    
    344000   0.8747324      0.0023323615   0.00012715328  20.170624      18.871647      1.2989776     -1.5979249      18025.889    
    345000   0.9926448      0.0023323615   0.0040415929   20.361386      18.887309      1.4740775     -1.7021015      18016.606    
    346000   1.1064894      0.0023323615   0.0037103357   20.512059      18.868922      1.6431367     -1.6616194      17917.501    
    347000   0.9249304      0.0023323615  -0.0014967033   20.070154      18.696633      1.3735216     -1.8311833      17959.728    
    348000   1.0330952      0.0023323615  -0.0057269063   20.162726      18.62858       1.5341464     -1.8913738      17802.006    
    349000   0.94250879     0.0023323615   0.0032374733   19.99017       18.590545      1.3996256     -1.9263531      17953.303    
    350000   0.97239568     0.0023323615   0.003033204    20.068728      18.62472       1.4440076     -1.8216242      17926.398    
    351000   0.90862926     0.0023323615  -0.0034620777   20.191475      18.842161      1.3493145     -1.6895873      17981.85     
    352000   1.0580871      0.0023323615   0.0011860817   20.536368      18.965109      1.5712593     -1.6037307      18176.734    
    353000   0.96641152     0.0023323615   0.002606762    20.217849      18.782728      1.4351211     -1.8626224      18052.972    
    354000   0.95791569     0.0023323615   0.0026188044   20.2159        18.793395      1.4225048     -1.879942       18141.995    
    355000   0.9341337      0.0023323615  -0.00044036868  20.161822      18.774633      1.3871885     -1.6486794      18174.947    
    356000   0.90641493     0.0023323615   0.00095668352  20.185276      18.839249      1.3460262     -1.6538004      18228.09     
    357000   0.97055606     0.0023323615  -0.00056549434  20.32182       18.880544      1.4412758     -1.5568071      18358.983    
    358000   1.0164856      0.0023323615  -0.0015905767   20.269695      18.760213      1.5094811     -1.6905815      18125.469    
    359000   0.99331897     0.0023323615  -0.00091025023  20.442393      18.967315      1.4750787     -1.6405564      17910.402    
    360000   0.84252139     0.0023323615  -0.001418538    20.452125      19.20098       1.2511443     -1.2870275      18011.797    
    361000   0.79392158     0.0023323615  -0.0035312292   20.183669      19.004695      1.1789735     -1.4836302      18289.028    
    362000   0.96805135     0.0023323615  -0.00092775314  20.461917      19.024361      1.4375563     -1.5910812      17993.753    
    363000   1.0462287      0.0023323615  -0.0021158553   20.51538       18.961731      1.5536497     -1.6379968      18043.498    
    364000   1.0449954      0.0023323615  -0.0011512419   20.260249      18.708431      1.5518182     -1.7620135      17929.651    
    365000   1.2020346      0.0023323615  -0.0012605537   20.714895      18.929873      1.7850214     -1.5909618      17916.639    
    366000   1.2047913      0.0023323615   0.00062799911  20.497236      18.708121      1.7891151     -1.7969964      18099.809    
    367000   1.0712356      0.0023323615   0.00045248826  20.369854      18.77907       1.5907848     -1.6873618      17943.368    
    368000   1.0841608      0.0023323615   0.00089909448  20.262353      18.652374      1.6099788     -1.9060255      17880.499    
    369000   0.92452058     0.0023323615   0.00095380011  19.9921        18.619187      1.3729131     -1.8240401      17755.426    
    370000   1.0739052      0.0023323615  -0.0013603686   20.245024      18.650275      1.5947493     -1.762561       18016.664    
    371000   1.0049518      0.0023323615   0.00066675563  20.117805      18.625452      1.4923535     -1.957356       17838.371    
    372000   0.96247277     0.0023323615  -0.0040608133   20.119256      18.689984      1.4292721     -1.7370909      17876.742    
    373000   1.076312       0.0023323615  -0.0015327894   20.296673      18.69835       1.5983233     -1.8134325      17942.63     
    374000   1.0231842      0.0023323615  -0.001736487    20.469706      18.950277      1.5194285     -1.644223       17859.932    
    375000   1.1201856      0.0023323615   0.002505221    20.394477      18.731002      1.6634756     -1.7609424      17923.707    
    376000   0.98924786     0.0023323615   0.00079556864  20.472968      19.003935      1.4690331     -1.574892       17721.805    
    377000   1.041896       0.0023323615   0.00031608728  20.310523      18.763307      1.5472156     -1.7582143      17911.443    
    378000   0.98892914     0.0023323615   0.0017539213   20.35747       18.888911      1.4685598     -1.5107993      18034.083    
    379000   1.077926       0.0023323615   0.00018782326  20.344748      18.744028      1.6007201     -1.6906959      17811.107    
    380000   1.0499547      0.0023323615  -0.0012116085   20.451241      18.892059      1.5591828     -1.653719       17848.751    
    381000   0.9829469      0.0023323615  -0.0042286365   20.210992      18.751316      1.4596762     -1.7294489      17799.314    
    382000   0.9966555      0.0023323615  -0.0012837083   20.316859      18.836825      1.4800334     -1.7775715      17781.23     
    383000   0.95569754     0.0023323615   0.001326114    20.182154      18.762943      1.4192108     -1.7749655      17842.172    
    384000   1.0332103      0.0023323615  -0.0016625814   20.426567      18.892249      1.5343174     -1.8627665      17887.818    
    385000   1.0646229      0.0023323615   0.0038406248   20.650645      19.06968       1.580965      -1.5740193      17730.884    
    386000   0.99916649     0.0023323615   0.00021056255  20.281864      18.798102      1.4837622     -1.731657       18123.175    
    387000   0.99218988     0.0023323615  -0.0003867409   20.414984      18.941582      1.473402      -1.6082559      18051.614    
    388000   1.1333582      0.0023323615   0.0050497424   20.443608      18.760571      1.683037      -1.7738041      17976.665    
    389000   1.0749349      0.0023323615  -0.0028782414   20.568036      18.971758      1.5962784     -1.6711929      18029.285    
    390000   1.0717695      0.0023323615   0.00018482399  20.456571      18.864994      1.5915777     -1.7801763      18086.316    
    391000   1.0538625      0.0023323615  -0.00032387997  20.460495      18.895509      1.5649857     -1.5872751      18038.056    
    392000   0.85283164     0.0023323615   0.00044325196  20.070083      18.803628      1.266455      -1.7673682      17894.346    
    393000   0.97788417     0.0023323615  -0.0019426378   20.297135      18.844977      1.452158      -1.7673882      17841.381    
    394000   1.0248277      0.0023323615   0.0009925602   20.366325      18.844456      1.5218692     -1.6143547      18085.058    
    395000   1.0746003      0.0023323615  -0.0014826533   20.260748      18.664966      1.5957815     -1.7817826      17982.206    
    396000   1.0477622      0.0023323615  -0.0023543628   20.265647      18.709721      1.5559268     -1.7748129      18080.714    
    397000   0.88946599     0.0023323615  -0.00087946799  20.123446      18.802589      1.320857      -1.6373134      18193.937    
    398000   0.97328299     0.0023323615  -1.7549553e-05  20.415376      18.970051      1.4453252     -1.5069839      17948.935    
    399000   1.1331618      0.0023323615  -0.0015896539   20.890146      19.207401      1.6827453     -1.4902146      18103.463    
    400000   1.0273361      0.0023323615   0.0028323162   20.25662       18.731026      1.5255941     -1.6561336      18127.102    
    401000   0.88947997     0.0023323615   0.0042884754   20.052358      18.73148       1.3208778     -1.8528227      18009.334    
    402000   1.0337222      0.0023323615  -0.00063830486  20.150767      18.61569       1.5350774     -1.7672684      17947.318    
    403000   0.98156837     0.0023323615  -0.0015954076   20.505284      19.047655      1.457629      -1.5328285      18027.839    
    404000   1.0085357      0.0023323615   3.2425379e-05  20.488019      18.990343      1.4976755     -1.619821       17873.787    
    405000   0.98300268     0.0023323615  -0.0031817871   20.358555      18.898796      1.459759      -1.6876068      17873.272    
    406000   1.1458427      0.0023323615  -0.00043349841  20.387889      18.686313      1.7015764     -1.7927057      17913.709    
    407000   0.96296091     0.0023323615   0.00043745559  20.208452      18.778456      1.429997      -1.7249908      17922.464    
    408000   1.0050509      0.0023323615   0.00016513394  20.502978      19.010478      1.4925005     -1.4993772      17934.106    
    409000   1.0797459      0.0023323615   0.0015601271   20.58502       18.981598      1.6034226     -1.5324357      18109.582    
    410000   1.0884292      0.0023323615   1.7163296e-05  20.462976      18.846658      1.6163173     -1.6924244      18161.071    
[...]
    861000   1.018748       0.0023323615  -0.0035810918   20.350414      18.837573      1.5128408     -1.709102       18238.252    
    862000   1.1352479      0.0023323615  -0.00084601197  20.337704      18.651861      1.6858431     -1.8031625      18293.704    
    863000   0.94101083     0.0023323615  -0.0024769607   20.17903       18.781629      1.3974011     -1.7791582      18332.944    
    864000   1.0193537      0.0023323615   0.001011984    20.206638      18.692897      1.5137402     -1.8072882      18112.073    
    865000   0.9322723      0.0023323615   0.0012985499   20.320114      18.93569       1.3844244     -1.569155       18006.303    
    866000   1.0503125      0.0023323615  -0.00093475808  20.671676      19.111962      1.5597141     -1.47385        18073.553    
    867000   1.1226299      0.0023323615   0.0053077997   20.658843      18.991737      1.6671053     -1.5625184      18150.76     
    868000   0.85890881     0.0023323615   0.00074622044  19.916126      18.640646      1.2754796     -1.8162708      18092.411    
    869000   1.0492336      0.0023323615  -0.00032564776  20.393954      18.835842      1.5581119     -1.6124897      18015.129    
    870000   0.90558568     0.0023323615  -0.0080539916   20.292431      18.947636      1.3447947     -1.6057232      18057.711    
    871000   0.92920013     0.0023323615  -0.00023381295  20.162131      18.782268      1.3798622     -1.7262366      17945.708    
    872000   0.99160176     0.0023323615  -0.0021277341   20.217589      18.74506       1.4725286     -1.7709806      17942.227    
    873000   1.0905251      0.0023323615   0.0052004186   20.365545      18.746116      1.6194298     -1.6148306      17782.922    
    874000   0.97950502     0.0023323615   0.0004836355   20.410866      18.956301      1.454565      -1.6391316      17917.423    
    875000   1.1815481      0.0023323615   0.0048925087   20.420133      18.665534      1.7545989     -1.7707972      17986.512    
    876000   0.88100531     0.0023323615  -0.001389802    20.107152      18.798859      1.3082929     -1.6485809      17926.373    
    877000   0.9141468      0.0023323615  -0.00097270343  20.180945      18.823437      1.357508      -1.6935316      17837.896    
    878000   0.98293135     0.0023323615   0.00074365394  20.307461      18.847808      1.4596531     -1.6249209      18056.205    
    879000   1.1312224      0.0023323615   0.0022938596   20.5403        18.860434      1.6798653     -1.5902866      18249.083    
    880000   1.1310637      0.0023323615   0.00063140818  20.460896      18.781267      1.6796296     -1.7115432      18304.749    
    881000   1.0293083      0.0023323615  -0.00030535218  20.415175      18.886652      1.5285229     -1.7033847      18062.067    
    882000   0.93257816     0.0023323615  -0.0016185265   20.190835      18.805957      1.3848786     -1.7136517      17918.604    
    883000   0.94553041     0.0023323615  -0.0013336005   20.289         18.884887      1.4041127     -1.6129497      18081.366    
    884000   0.98690179     0.0023323615  -0.0020507806   20.337624      18.872075      1.4655492     -1.8093965      18008.931    
    885000   0.94835156     0.0023323615   1.6145263e-06  20.211311      18.803009      1.4083021     -1.671935       17864.641    
    886000   0.97984409     0.0023323615  -0.0036636438   20.404333      18.949265      1.4550685     -1.5445607      17934.264    
    887000   1.0407943      0.0023323615  -0.0015850924   20.21176       18.66618       1.5455795     -1.823643       17979.511    
    888000   0.88230893     0.0023323615   0.0016468708   20.101403      18.791174      1.3102288     -1.6647555      18091.407    
    889000   0.98656521     0.0023323615  -0.0018771724   20.290533      18.825484      1.4650493     -1.6408308      18147.246    
    890000   0.98705148     0.0023323615  -0.0026333364   20.40816       18.942388      1.4657714     -1.6551698      18228.723    
    891000   1.1396732      0.0023323615   0.005172366    20.484425      18.79201       1.6924147     -1.7359737      18413.097    
    892000   0.95617117     0.0023323615   0.0011844702   19.900885      18.480971      1.4199142     -2.0200275      18217.856    
    893000   0.9931758      0.0023323615   0.0034654433   20.15842       18.683554      1.4748661     -1.8082688      18050.86     
    894000   1.0276997      0.0023323615  -0.0021032338   20.052965      18.526831      1.5261341     -1.9687059      17916.954    
    895000   1.0527821      0.0023323615   0.00051814634  20.254681      18.6913        1.5633815     -1.6876196      18069.11     
    896000   1.0991681      0.0023323615   0.0017451801   20.583062      18.950798      1.6322646     -1.5682437      18119.76     
    897000   0.91993222     0.0023323615   0.0039716992   20.187906      18.821807      1.3660994     -1.6220823      18131.834    
    898000   1.0387352      0.0023323615  -0.00043495992  20.537392      18.99487       1.5425218     -1.5267437      17977.409    
    899000   0.88606936     0.0023323615  -0.0016594573   20.157979      18.842166      1.315813      -1.6692896      18191.327    
    900000   0.94121813     0.0023323615   0.0031601605   20.113219      18.715511      1.3977089     -1.696032       18261.179    
    901000   1.124598       0.0023323615  -0.0017499068   20.569881      18.899853      1.670028      -1.5252367      18268.696    
    902000   0.91770908     0.0023323615   0.00035209826  20.388952      19.026154      1.362798      -1.4139009      18364.458    
    903000   1.0397613      0.0023323615   0.0025463048   20.428727      18.884682      1.5440456     -1.5965884      18321.815    
    904000   1.1500728      0.0023323615   0.0022864888   20.620129      18.912271      1.7078581     -1.6474063      18271.927    
    905000   1.1842609      0.0023323615   0.0025745762   20.622127      18.8635        1.7586274     -1.5885812      18113.253    
    906000   0.9301815      0.0023323615  -0.0018424648   20.471348      19.090028      1.3813195     -1.5158658      18013.484    
    907000   0.98112124     0.0023323615   0.0021389375   20.241469      18.784504      1.456965      -1.7633211      17982.197    
    908000   1.0831007      0.0023323615   0.0012650187   20.16684       18.558435      1.6084045     -1.886561       18005.114    
    909000   0.90929889     0.0023323615  -0.00045506694  19.91852       18.568211      1.3503088     -1.9577684      17948.757    
    910000   0.90947509     0.0023323615  -0.0054529905   20.300439      18.949868      1.3505705     -1.6283676      17977.303    
    911000   1.3636032      0.0023323615  -0.0009943435   20.775445      18.750494      2.0249508     -1.8122426      17949.784    
    912000   1.0066736      0.0023323615   0.00014366559  20.49643       19.001519      1.4949104     -1.6750264      17871.057    
    913000   1.1650759      0.0023323615   0.0023689404   20.650333      18.920196      1.7301377     -1.554813       17937.948    
    914000   0.92395005     0.0023323615  -0.0015539162   20.32484       18.952774      1.3720658     -1.6356522      17892.653    
    915000   0.83846261     0.0023323615   0.00058907908  20.003815      18.758698      1.245117      -1.7421805      17888.224    
    916000   1.0267877      0.0023323615   0.0028993592   20.399906      18.875127      1.5247797     -1.5900933      17894.382    
    917000   1.1622588      0.0023323615  -0.00086357147  20.650359      18.924404      1.7259542     -1.6601936      17992.592    
    918000   1.0636885      0.0023323615   0.00099148395  20.351173      18.771595      1.5795774     -1.7953252      17911.459    
    919000   1.0360323      0.0023323615  -0.00046797235  20.343748      18.80524       1.538508      -1.7374249      17791.826    
    920000   0.96211694     0.0023323615  -0.00019587229  20.297555      18.868811      1.4287437     -1.76801        17708.09     
    921000   1.1113437      0.0023323615  -0.0044334173   20.224519      18.574174      1.6503454     -1.988772       17727.596    
    922000   0.9056039      0.0023323615  -0.0023832592   19.742398      18.397576      1.3448218     -2.110209       17785.466    
    923000   1.0451531      0.0023323615  -0.00047935533  20.517525      18.965473      1.5520523     -1.7695599      17732.966    
    924000   1.0420014      0.0023323615   0.0056221126   20.10936       18.561988      1.5473721     -1.8988774      17831.583    
    925000   0.92975878     0.0023323615   0.00089319972  19.860263      18.479571      1.3806918     -1.9962838      17797.092    
    926000   0.98147052     0.0023323615   0.0024233091   19.88583       18.428347      1.4574837     -2.0639975      17849.591    
    927000   0.98031198     0.0023323615  -0.0022055493   20.206097      18.750334      1.4557633     -1.7441403      17933.761    
    928000   1.1318753      0.0023323615  -0.00012970251  20.297161      18.616326      1.6808348     -1.8832707      17905.53     
    929000   1.019563       0.0023323615   0.00060445579  20.142331      18.62828       1.5140511     -1.8454558      17706.755    
    930000   1.0154038      0.0023323615  -0.0036889119   20.424281      18.916407      1.5078746     -1.6069041      18082.164    
    931000   1.0407467      0.0023323615  -0.0011395365   20.309057      18.763548      1.5455089     -1.7785362      17941.675    
    932000   0.90765506     0.0023323615  -0.00035401165  19.879616      18.531749      1.3478678     -1.8275257      17929.113    
    933000   0.96606012     0.0023323615  -0.00051303539  20.269634      18.835035      1.4345993     -1.624446       17774.827    
    934000   0.89004764     0.0023323615   0.00068583204  20.259445      18.937724      1.3217207     -1.651408       17911.401    
    935000   1.0221277      0.0023323615  -0.00011317501  20.332409      18.81455       1.5178596     -1.7740427      17886.632    
    936000   1.0737916      0.0023323615  -0.00062769937  20.384098      18.789518      1.5945805     -1.8128308      17788.845    
    937000   1.0236042      0.0023323615   0.0018263085   20.33821       18.818158      1.5200522     -1.7253344      17846.166    
    938000   1.0459678      0.0023323615   0.0022119073   20.26207       18.708808      1.5532621     -1.7209806      17760.901    
    939000   0.9327812      0.0023323615   0.0033306053   20.017928      18.632748      1.3851801     -1.8399815      17904.879    
    940000   0.95282336     0.0023323615  -0.0021575203   20.306628      18.891685      1.4149427     -1.7391251      17912.899    
    941000   1.0612914      0.0023323615   0.0019319062   20.541233      18.965215      1.5760177     -1.6204308      17984.869    
    942000   0.9499553      0.0023323615  -0.00080425308  20.167677      18.756993      1.4106836     -1.739695       18203.015    
    943000   1.0265928      0.0023323615   0.0035313872   19.995396      18.470905      1.5244904     -1.9312302      17990.254    
    944000   1.1368168      0.0023323615   0.0017428992   20.197784      18.509611      1.688173      -1.9121276      18152.206    
    945000   0.96408502     0.0023323615  -0.0026642458   20.26025       18.828584      1.4316662     -1.5965216      18270.475    
    946000   0.99073407     0.0023323615   0.0038547108   20.26007       18.78883       1.4712401     -1.7757779      18241.042    
    947000   1.0936827      0.0023323615  -0.001068577    20.483263      18.859144      1.6241187     -1.74964        18188.897    
    948000   1.0317993      0.0023323615   0.0032648747   20.247559      18.715337      1.532222      -1.6978104      18290.443    
    949000   0.96790818     0.0023323615  -0.0044919395   20.171758      18.734414      1.4373436     -1.7077402      18269.134    
    950000   1.1258864      0.0023323615   0.0022527256   20.281971      18.61003       1.6719413     -1.8931399      18171.883    
    951000   0.81140345     0.0023323615  -0.0015760981   19.795369      18.590435      1.2049341     -1.8690953      18093.424    
    952000   0.94338132     0.0023323615   0.00061846488  20.107594      18.706672      1.4009213     -1.8495307      18141.721    
    953000   1.108481       0.0023323615   0.00246793     20.28232       18.636226      1.6460942     -1.8723158      18080.177    
    954000   1.0307091      0.0023323615  -0.00054165627  20.554026      19.023423      1.530603      -1.5273413      18109.208    
    955000   1.0685259      0.0023323615  -0.00069716188  20.301059      18.714298      1.586761      -1.7803318      18103.322    
    956000   1.0519308      0.0023323615  -0.0019288464   20.300267      18.73815       1.5621173     -1.7591653      17976.784    
    957000   0.97728525     0.0023323615  -0.0011451543   20.406982      18.955714      1.4512686     -1.6744396      17997.101    
    958000   1.1511423      0.0023323615   0.0018005072   20.644859      18.935412      1.7094463     -1.6560163      18046.114    
    959000   1.0756217      0.0023323615   0.0024393741   20.484216      18.886918      1.5972982     -1.6783309      18013.406    
    960000   1.0828032      0.0023323615  -0.004396289    20.731147      19.123184      1.6079628     -1.6194552      18008.902    
    961000   0.87344299     0.0023323615   0.0036664535   20.147317      18.850254      1.2970628     -1.6862515      18041.551    
    962000   1.0888307      0.0023323615   0.0011552248   20.257807      18.640894      1.6169136     -1.8397713      17997.416    
    963000   1.0616584      0.0023323615   0.00086696353  20.541349      18.964786      1.5765627     -1.6714089      17981.532    
    964000   1.0243775      0.0023323615   0.0016065451   20.119682      18.598481      1.5212006     -1.8663137      18299.946    
    965000   0.97298213     0.0023323615   0.0024030599   20.435574      18.990696      1.4448785     -1.6538845      18382.753    
    966000   0.90933787     0.0023323615  -0.0014981143   20.22148       18.871113      1.3503667     -1.5767309      18472.132    
    967000   0.91019863     0.0023323615  -0.00094144637  20.160011      18.808366      1.351645      -1.6824371      18453.267    
    968000   0.86755466     0.0023323615   0.00055826298  20.067509      18.77919       1.2883187     -1.7290498      18459.075    
    969000   0.93117157     0.0023323615   0.0039413238   20.353994      18.971204      1.3827898     -1.5899092      18148.302    
    970000   1.099544       0.0023323615  -0.0024852841   20.651711      19.018888      1.6328229     -1.4874644      18085.386    
    971000   0.88726305     0.0023323615  -0.0028938269   20.286112      18.968527      1.3175856     -1.6256315      18140.306    
    972000   0.99818254     0.0023323615   0.0012501616   20.467324      18.985023      1.4823011     -1.4775209      18345.148    
    973000   1.0983939      0.0023323615  -0.0022801826   20.469874      18.838759      1.6311149     -1.7845321      18211.703    
    974000   0.93245576     0.0023323615  -8.160778e-05   20.197899      18.813202      1.3846968     -1.7378666      18188.94     
    975000   1.0829405      0.0023323615  -0.00042926697  20.293966      18.685799      1.6081666     -1.749291       18568.724    
    976000   0.97909824     0.0023323615   0.0022552706   20.425466      18.971506      1.4539609     -1.6034521      19634.816    
    977000   1.1039832      0.0023323615  -0.00028964401  20.375579      18.736164      1.639415      -1.8174042      19102.615    
    978000   1.0659821      0.0023323615  -0.0015963136   20.24445       18.661467      1.5829834     -2.0047966      19048.006    
    979000   0.99760523     0.0023323615  -0.00038124143  20.193065      18.711621      1.4814438     -1.7022456      19475.557    
    980000   1.0191497      0.0023323615  -7.382554e-05   20.434649      18.921212      1.5134373     -1.6586782      18606.163    
    981000   0.78018776     0.0023323615   0.00062348991  19.970018      18.81144       1.1585788     -1.8177172      18144.194    
    982000   0.97277235     0.0023323615  -0.0014188278   20.274152      18.829585      1.4445669     -1.7018717      18028.855    
    983000   0.87637545     0.0023323615  -0.00020659017  20.013796      18.712379      1.3014175     -1.8503586      18017.409    
    984000   1.1204922      0.0023323615   4.5696576e-05  20.322311      18.65838       1.6639308     -1.9044272      18537.6      
    985000   1.0035995      0.0023323615  -0.0026705741   20.300383      18.810038      1.4903452     -1.8454737      17881.02     
    986000   1.1023785      0.0023323615  -0.0022528007   20.262127      18.625095      1.637032      -1.8142862      17922.623    
    987000   0.98029874     0.0023323615   0.0066461935   20.09653       18.640787      1.4557436     -1.8799732      18669.827    
    988000   0.87629837     0.0023323615   0.0023484834   19.908022      18.606719      1.3013031     -1.9525422      18257.963    
    989000   1.0026661      0.0023323615  -0.002242996    19.978087      18.489128      1.4889592     -2.0294124      17954.233    
    990000   0.96598981     0.0023323615  -0.00282741     19.98512       18.550625      1.4344949     -1.8088329      18337.053    
    991000   1.0366761      0.0023323615  -0.004481157    20.276626      18.737162      1.539464      -1.814203       18782.706    
    992000   1.2083951      0.0023323615   0.0010865769   20.460904      18.666438      1.7944668     -1.9481786      18005.679    
    993000   1.0665406      0.0023323615   0.0059065106   20.416433      18.83262       1.5838128     -1.6115207      18344.136    
    994000   0.97470204     0.0023323615   0.0032015088   20.644897      19.197464      1.4474325     -1.4427512      19375.779    
    995000   0.99703283     0.0023323615  -0.0012855652   20.289939      18.809345      1.4805938     -1.7136895      19611.81     
    996000   1.0064249      0.0023323615   0.00027095535  20.021441      18.5269        1.494541      -1.967621       19154.576    
    997000   1.0247277      0.0023323615  -0.00077532516  20.308836      18.787116      1.5217206     -1.7366952      19484.986    
    998000   1.0242391      0.0023323615  -0.0064124748   20.433619      18.912624      1.520995      -1.6623173      19603.925    
    999000   1.0269667      0.0023323615  -0.0023094826   20.521496      18.99645       1.5250456     -1.571357       19704.848    
   1000000   1.0257787      0.0023323615  -0.00097687071  20.629815      19.106533      1.5232813     -1.5779325      19571.67     
Loop time of 54.9866 on 1 procs for 1000000 steps with 100 atoms

Performance: 7856458.842 tau/day, 18186.247 timesteps/s
99.4% CPU use with 1 MPI tasks x 1 OpenMP threads

MPI task timing breakdown:
Section |  min time  |  avg time  |  max time  |%varavg| %total
---------------------------------------------------------------
Pair    | 45.707     | 45.707     | 45.707     |   0.0 | 83.12
Bond    | 1.272      | 1.272      | 1.272      |   0.0 |  2.31
Neigh   | 3.8177     | 3.8177     | 3.8177     |   0.0 |  6.94
Comm    | 1.3715     | 1.3715     | 1.3715     |   0.0 |  2.49
Output  | 0.21146    | 0.21146    | 0.21146    |   0.0 |  0.38
Modify  | 2.2474     | 2.2474     | 2.2474     |   0.0 |  4.09
Other   |            | 0.3591     |            |       |  0.65

Nlocal:            100 ave         100 max         100 min
Histogram: 1 0 0 0 0 0 0 0 0 0
Nghost:            298 ave         298 max         298 min
Histogram: 1 0 0 0 0 0 0 0 0 0
Neighs:           4851 ave        4851 max        4851 min
Histogram: 1 0 0 0 0 0 0 0 0 0

Total # of neighbors = 4851
Ave neighs/atom = 48.51
Ave special neighs/atom = 1.98
Neighbor list builds = 97815
Dangerous builds = 79483

write_data      ${outputfile_assembled} nofix nocoeff
write_data      7_assembled.data nofix nocoeff
System init for write_data ...
Generated 0 of 6 mixed pair_coeff terms from geometric mixing rule

Total wall time: 0:00:56
