LAMMPS (23 Jun 2022 - Update 1)
OMP_NUM_THREADS environment is not set. Defaulting to 1 thread. (src/comm.cpp:98)
  using 1 OpenMP thread(s) per MPI task


variable        runtime equal 1000000
variable		subsample_rate equal 1000

variable		outputfile_created string '3_created.data'
variable		outputfile_relaxed string '5_relaxed.data'
variable		outputfile_selfasb string '6_a_self_assemble.lammpstrj'
variable		outputfile_trajlin string '6_b_trajlin.data'
variable		outputfile_assembled string '7_assembled.data'

units           lj
atom_style      full
dimension       3
boundary        p p p
timestep        0.005

read_data       ${outputfile_created}
read_data       3_created.data
Reading data file ...
  orthogonal box = (0 0 0) to (35 35 35)
  1 by 1 by 1 MPI processor grid
  reading atoms ...
  100 atoms
  reading velocities ...
  100 velocities
  scanning bonds ...
  1 = max bonds/atom
  reading bonds ...
  99 bonds
Finding 1-2 1-3 1-4 neighbors ...
  special bond factors lj:    0        0        0       
  special bond factors coul:  0        0        0       
     2 = max # of 1-2 neighbors
     2 = max # of 1-3 neighbors
     4 = max # of 1-4 neighbors
     6 = max # of special neighbors
  special bonds CPU = 0.000 seconds
  read_data CPU = 0.005 seconds

bond_style      fene
bond_coeff      * 30.0 1.5 1.0 1.0
special_bonds   fene
Finding 1-2 1-3 1-4 neighbors ...
  special bond factors lj:    0        1        1       
  special bond factors coul:  0        1        1       
     2 = max # of 1-2 neighbors
     6 = max # of special neighbors
  special bonds CPU = 0.000 seconds

variable        Temp equal 1.0
variable        velSeed equal 926458

velocity        all create ${Temp} ${velSeed}
velocity        all create 1 ${velSeed}
velocity        all create 1 926458

### Output
thermo_style    custom step temp density press etotal pe ke epair spcpu
thermo          1000

###########################################################################
# Soft relaxation (to remove overlaps of particles)
######################################################################

pair_style      soft 1.0
pair_coeff      * * 0.0
variable        prefactor equal ramp(0,300)
fix             rampSoft all adapt 1 pair soft a * * v_prefactor

minimize        0.0 1.0e-8 1000 100000
WARNING: Using 'neigh_modify every 1 delay 0 check yes' setting during minimization (src/min.cpp:187)
Generated 0 of 6 mixed pair_coeff terms from geometric mixing rule
Neighbor list info ...
  update every 1 steps, delay 0 steps, check yes
  max neighbors/atom: 2000, page size: 100000
  master list distance cutoff = 1.3
  ghost atom cutoff = 1.3
  binsize = 0.65, bins = 54 54 54
  1 neighbor lists, perpetual/occasional/extra = 1 0 0
  (1) pair soft, perpetual
      attributes: half, newton on
      pair build: half/bin/newton
      stencil: half/bin/3d
      bin: standard
WARNING: Communication cutoff 1.3 is shorter than a bond length based estimate of 1.7550000000000001. This may lead to errors. (src/comm.cpp:727)
Per MPI rank memory allocation (min/avg/max) = 8.346 | 8.346 | 8.346 Mbytes
   Step          Temp         Density         Press          TotEng         PotEng         KinEng         E_pair         S/CPU     
         0   1              0.0023323615  -0.0039617958   21.524174      20.039174      1.485          0              0            
       362   1              0.0023323615   0.0023090379   21.485548      20.000548      1.485          0              69517.125    
Loop time of 0.00520992 on 1 procs for 362 steps with 100 atoms

97.8% CPU use with 1 MPI tasks x 1 OpenMP threads

Minimization stats:
  Stopping criterion = force tolerance
  Energy initial, next-to-last, final = 
      20.0391741078675   20.0005480767337   20.0005480767337
  Force two-norm initial, final = 11.878422 7.9509778e-09
  Force max component initial, final = 6.6117807 1.3572772e-09
  Final line search alpha, max atom move = 1 1.3572772e-09
  Iterations, force evaluations = 362 738

MPI task timing breakdown:
Section |  min time  |  avg time  |  max time  |%varavg| %total
---------------------------------------------------------------
Pair    | 0.00022387 | 0.00022387 | 0.00022387 |   0.0 |  4.30
Bond    | 0.0023375  | 0.0023375  | 0.0023375  |   0.0 | 44.87
Neigh   | 0.0014921  | 0.0014921  | 0.0014921  |   0.0 | 28.64
Comm    | 0.00017913 | 0.00017913 | 0.00017913 |   0.0 |  3.44
Output  | 0          | 0          | 0          |   0.0 |  0.00
Modify  | 0          | 0          | 0          |   0.0 |  0.00
Other   |            | 0.0009773  |            |       | 18.76

Nlocal:            100 ave         100 max         100 min
Histogram: 1 0 0 0 0 0 0 0 0 0
Nghost:             20 ave          20 max          20 min
Histogram: 1 0 0 0 0 0 0 0 0 0
Neighs:              0 ave           0 max           0 min
Histogram: 1 0 0 0 0 0 0 0 0 0

Total # of neighbors = 0
Ave neighs/atom = 0
Ave special neighs/atom = 1.98
Neighbor list builds = 17
Dangerous builds = 0

fix             nvtSoft all nvt temp ${Temp} ${Temp} 0.5
fix             nvtSoft all nvt temp 1 ${Temp} 0.5
fix             nvtSoft all nvt temp 1 1 0.5
run             100000
Generated 0 of 6 mixed pair_coeff terms from geometric mixing rule
WARNING: Communication cutoff 1.3 is shorter than a bond length based estimate of 1.7550000000000001. This may lead to errors. (src/comm.cpp:727)
Per MPI rank memory allocation (min/avg/max) = 7.221 | 7.221 | 7.221 Mbytes
   Step          Temp         Density         Press          TotEng         PotEng         KinEng         E_pair         S/CPU     
       362   1              0.0023323615   0.0023090379   21.485548      20.000548      1.485          0              0            
      1000   0.90989032     0.0023323615  -0.0021940042   21.776974      20.425787      1.3511871      0.00036425437  74656.845    
      2000   0.86546688     0.0023323615   0.0034714157   21.677128      20.39191       1.2852183      0.0025814786   74183.074    
      3000   0.98199538     0.0023323615   0.0028144228   21.866132      20.407869      1.4582631      0.0011756043   72385.125    
      4000   1.004495       0.0023323615  -0.0014058211   21.945624      20.453949      1.4916751      0.011986179    72699.034    
      5000   1.1222705      0.0023323615   0.0044495116   21.986385      20.319813      1.6665718      0.0050317639   73422.108    
      6000   1.0538243      0.0023323615   0.0023957538   21.985713      20.420784      1.564929       0.012100514    74085.395    
      7000   1.0210598      0.0023323615  -0.00038820026  21.904665      20.388391      1.5162738      0              75354.6      
      8000   0.94819751     0.0023323615   0.0024943091   21.747889      20.339816      1.4080733      0              75148.599    
      9000   0.92364502     0.0023323615   0.0020053029   21.724166      20.352554      1.3716129      1.7780894e-05  74155.244    
     10000   0.86685188     0.0023323615   0.00078277366  21.644879      20.357604      1.287275       0.0098636418   74844.815    
     11000   1.0057103      0.0023323615   0.00010113276  21.8558        20.362321      1.4934798      0.020705341    74725.235    
     12000   0.97901664     0.0023323615  -0.0026996968   21.871206      20.417366      1.4538397      0.0052928539   74421.418    
     13000   0.97718436     0.0023323615  -6.1641422e-06  21.963706      20.512587      1.4511188      0.025022446    74270.07     
     14000   1.0530014      0.0023323615  -0.0009993112   21.947994      20.384287      1.5637071      0.0020860456   73709.86     
     15000   0.99094527     0.0023323615   0.0011068478   21.895146      20.423592      1.4715537      0.0015091113   74609.555    
     16000   0.91285091     0.0023323615  -0.00025424173  21.87524       20.519657      1.3555836      0.0047853639   74077.257    
     17000   0.82806978     0.0023323615  -0.00054698156  21.701984      20.472301      1.2296836      0              70991.905    
     18000   1.043278       0.0023323615  -6.6143919e-05  22.003299      20.454031      1.5492679      0.0034319132   74039.122    
     19000   1.0879249      0.0023323615  -0.0017804642   21.998985      20.383416      1.6155685      0.015376175    73477.621    
     20000   1.1144506      0.0023323615   0.0025198298   22.190904      20.535944      1.6549592      0              74557.277    
     21000   1.0427751      0.0023323615   0.0011345349   22.099492      20.550971      1.548521       0.00040047813  75146.504    
     22000   1.0586695      0.0023323615   0.0017882747   22.05673       20.484606      1.5721242      0              74703.872    
     23000   1.0058426      0.0023323615  -0.0055245362   21.954628      20.460951      1.4936763      0.0027619031   73817.25     
     24000   0.98273442     0.0023323615   0.0015147357   21.862067      20.402707      1.4593606      0              74073.959    
     25000   0.95835343     0.0023323615   0.0017808774   21.937761      20.514606      1.4231548      0.00020839942  73021.451    
     26000   0.93993778     0.0023323615  -0.0021777292   21.884849      20.489042      1.3958076      0.0088889834   73606.141    
     27000   0.9308188      0.0023323615  -0.00011239942  21.842252      20.459986      1.3822659      0.021612409    73710.838    
     28000   1.0149581      0.0023323615   0.0041996387   21.906846      20.399633      1.5072129      0.0064059022   74185.121    
     29000   0.92841138     0.0023323615  -2.5398808e-05  21.987185      20.608494      1.3786909      0.0046112484   74047.746    
     30000   1.021043       0.0023323615   0.001589158    22.097958      20.581709      1.5162489      0.016799508    72595.766    
     31000   1.0465985      0.0023323615  -0.0021744286   22.037917      20.483718      1.5541987      0.0057879149   74654.309    
     32000   0.98907108     0.0023323615  -0.0015558606   22.044089      20.575318      1.4687705      0.009448173    73988.576    
     33000   1.0918536      0.0023323615  -0.0025643847   22.039275      20.417873      1.6214025      0              72499.219    
     34000   0.99801543     0.0023323615   0.0016279766   21.932339      20.450286      1.4820529      0.017384617    75665.19     
     35000   1.0352271      0.0023323615  -0.0052971711   22.076004      20.538692      1.5373122      0.00010473809  74140.042    
     36000   1.1141579      0.0023323615  -0.00093279925  22.222491      20.567966      1.6545245      0.00033678641  74355.054    
     37000   1.0369415      0.0023323615   0.00013065175  22.217841      20.677983      1.5398581      0.013788831    74459.831    
     38000   1.0515596      0.0023323615   0.0021717558   22.070766      20.5092        1.561566       0.0067894678   74969.954    
     39000   1.0238495      0.0023323615   0.00026414509  22.040141      20.519725      1.5204165      0.00044464649  74013.81     
     40000   1.0749111      0.0023323615  -0.0026849368   22.039327      20.443084      1.596243       0.012651334    72441.862    
     41000   0.99070886     0.0023323615  -0.0030385564   22.03241       20.561207      1.4712027      0.00092855646  75769.842    
     42000   0.95315224     0.0023323615   0.0019788197   21.965263      20.549832      1.4154311      0.020233689    74031.492    
     43000   1.0644183      0.0023323615  -0.0011168725   22.287172      20.706511      1.5806611      0.039694129    71680.23     
     44000   1.0253747      0.0023323615  -0.006676522    22.066233      20.543552      1.5226814      0              73233.285    
     45000   0.94179556     0.0023323615  -0.0047206018   21.970644      20.572077      1.3985664      0.019869988    73828.553    
     46000   1.0083495      0.0023323615  -0.0017646918   21.972114      20.474715      1.497399       0.00026040605  73758.992    
     47000   0.98767959     0.0023323615  -0.00080218158  22.091674      20.62497       1.4667042      0.024266258    73919.533    
     48000   1.1473449      0.0023323615  -0.0025885687   22.080512      20.376705      1.7038072      0.00065962995  73796.779    
     49000   1.0679312      0.0023323615   0.0017688272   21.970482      20.384604      1.5858779      0.014142422    74771.42     
     50000   0.9581935      0.0023323615   0.0014398836   21.955202      20.532284      1.4229173      0.0055011948   74677.719    
     51000   1.0215759      0.0023323615  -0.00093292688  21.934681      20.41764       1.5170402      0              70690.332    
     52000   0.98079591     0.0023323615   0.0040701936   21.977374      20.520892      1.4564819      0.0020862422   74881.031    
     53000   1.0090927      0.0023323615   0.0013324753   22.095438      20.596935      1.4985027      0              74444.615    
     54000   0.97519627     0.0023323615   0.0013260734   22.070151      20.621984      1.4481665      0.026885444    75134.568    
     55000   1.1805087      0.0023323615  -0.001586238    22.424088      20.671033      1.7530554      0.024690954    74814.46     
     56000   0.98387121     0.0023323615   0.0037155145   22.104425      20.643376      1.4610487      0.01435493     74570.32     
     57000   1.0723812      0.0023323615  -0.0037916262   22.122726      20.53024       1.592486       0.013635549    74291.296    
     58000   1.0152349      0.0023323615   0.00021908047  22.082827      20.575203      1.5076238      0.00077375639  74464.555    
     59000   1.1424502      0.0023323615  -0.0052108657   22.30072       20.604182      1.6965385      0.013308184    75581.597    
     60000   1.0359703      0.0023323615  -0.00097887545  22.188218      20.649802      1.538416       0.00011346294  73076.67     
     61000   1.1646839      0.0023323615  -0.002085017    22.239945      20.51039       1.7295556      0.012918477    75051.748    
     62000   1.101836       0.0023323615   0.0010338878   22.171386      20.53516       1.6362265      0.001396566    74688.5      
     63000   0.96616435     0.0023323615   0.00097550571  21.903821      20.469067      1.4347541      0.013027663    76053.667    
     64000   1.0068907      0.0023323615  -0.0020278726   22.061652      20.566419      1.4952327      0.013750276    74883.722    
     65000   0.98723233     0.0023323615   0.0022441476   22.031073      20.565033      1.46604        0.0066686189   75250.807    
     66000   1.0273881      0.0023323615  -0.0003515278   22.183579      20.657908      1.5256713      0              73376.282    
     67000   0.96528212     0.0023323615  -0.00014822656  21.9396        20.506156      1.4334439      0.010365557    75400.651    
     68000   1.069702       0.0023323615   9.4754668e-05  22.081119      20.492611      1.5885075      0.00049153926  72415.748    
     69000   1.1229502      0.0023323615   0.0011504079   22.200329      20.532748      1.6675811      0.0068454249   72436.604    
     70000   1.0062775      0.0023323615  -0.00085311964  22.094021      20.599699      1.4943221      0.013222355    73929.113    
     71000   1.0906935      0.0023323615   0.00015260357  22.145362      20.525682      1.6196798      0.018338513    73987.865    
     72000   1.010401       0.0023323615  -6.0487182e-06  22.154105      20.653659      1.5004455      0.0013793953   73095.456    
     73000   1.1177599      0.0023323615  -0.0034084797   22.254435      20.594562      1.6598735      0.00011231735  75845.844    
     74000   0.9768019      0.0023323615   0.00016143893  22.07312       20.622569      1.4505508      0.0084515956   74150.229    
     75000   1.1360996      0.0023323615   0.002159116    22.161595      20.474487      1.6871079      0.0089909162   74819.117    
     76000   0.97379329     0.0023323615  -0.00068458621  21.988928      20.542845      1.446083       0              74163.125    
     77000   0.94876793     0.0023323615  -0.0016073976   21.923496      20.514575      1.4089204      0.017745108    72309.398    
     78000   0.83947996     0.0023323615  -0.00062768559  21.726727      20.480099      1.2466277      0.0054510099   74357.049    
     79000   1.0090614      0.0023323615  -0.00080262643  22.068192      20.569736      1.4984562      0.00023011166  75426.755    
     80000   1.1217643      0.0023323615  -0.0038177864   22.367902      20.702082      1.66582        0.032902439    74325.868    
     81000   1.0240158      0.0023323615   0.00023547123  22.031597      20.510933      1.5206635      0.0068767308   74255.93     
     82000   1.003236       0.0023323615  -0.0022802982   21.894199      20.404393      1.4898055      0.019136282    73357.19     
     83000   1.0554159      0.0023323615   0.004011718    22.104562      20.537269      1.5672927      0.0080869707   72786.985    
     84000   0.83527346     0.0023323615  -0.0034122221   21.874648      20.634267      1.2403811      0.0030083664   74239.303    
     85000   1.036002       0.0023323615   0.0013573923   21.962923      20.42446       1.5384629      0.015709144    70729.106    
     86000   0.9432002      0.0023323615  -0.0032183248   21.913588      20.512936      1.4006523      0.013730309    73633.728    
     87000   0.95566008     0.0023323615  -0.00049614223  21.91653       20.497375      1.4191552      0.0035862035   74175.634    
     88000   0.93373351     0.0023323615  -0.00097093893  21.870485      20.483891      1.3865943      0.0018212145   73479.727    
     89000   0.9684944      0.0023323615  -0.00047342045  21.973429      20.535215      1.4382142      0.00087524744  73686.787    
     90000   0.98293324     0.0023323615  -0.0032204602   22.050919      20.591263      1.4596559      0.015353933    75065.01     
     91000   1.0832827      0.0023323615   0.0048517083   22.11977       20.511095      1.6086749      0.0052867789   75970.997    
     92000   0.85899662     0.0023323615  -0.0013049519   21.765697      20.490087      1.27561        0.0024124001   74689.287    
     93000   0.96176266     0.0023323615  -4.4223672e-05  21.874222      20.446004      1.4282176      0.0045653365   73698.371    
     94000   0.96019503     0.0023323615   0.00024459347  21.944954      20.519064      1.4258896      3.8053462e-05  74884.569    
     95000   0.94702149     0.0023323615  -0.0033658915   21.86315       20.456823      1.4063269      0              75611.308    
     96000   0.91119348     0.0023323615  -0.0013197298   21.825018      20.471896      1.3531223      0.00043282989  74493.567    
     97000   1.0016687      0.0023323615  -0.0019514304   22.013024      20.525546      1.487478       0.0048369955   73985.122    
     98000   1.02143        0.0023323615  -0.0057874974   22.177965      20.661142      1.5168235      0              72903.524    
     99000   1.032786       0.0023323615   0.0018228259   21.975336      20.441649      1.5336871      7.1595851e-05  75969.496    
    100000   1.0594928      0.0023323615   0.0036169719   22.011024      20.437677      1.5733468      0.00032948157  74211.316    
    100362   1.1904942      0.0023323615  -0.00089755607  22.316856      20.548972      1.7678839      0.00063845255  73916.365    
Loop time of 1.35003 on 1 procs for 100000 steps with 100 atoms

Performance: 31999355.770 tau/day, 74072.583 timesteps/s
99.2% CPU use with 1 MPI tasks x 1 OpenMP threads

MPI task timing breakdown:
Section |  min time  |  avg time  |  max time  |%varavg| %total
---------------------------------------------------------------
Pair    | 0.05116    | 0.05116    | 0.05116    |   0.0 |  3.79
Bond    | 0.12705    | 0.12705    | 0.12705    |   0.0 |  9.41
Neigh   | 0.8051     | 0.8051     | 0.8051     |   0.0 | 59.64
Comm    | 0.054651   | 0.054651   | 0.054651   |   0.0 |  4.05
Output  | 0.0012844  | 0.0012844  | 0.0012844  |   0.0 |  0.10
Modify  | 0.27479    | 0.27479    | 0.27479    |   0.0 | 20.35
Other   |            | 0.03599    |            |       |  2.67

Nlocal:            100 ave         100 max         100 min
Histogram: 1 0 0 0 0 0 0 0 0 0
Nghost:             60 ave          60 max          60 min
Histogram: 1 0 0 0 0 0 0 0 0 0
Neighs:             36 ave          36 max          36 min
Histogram: 1 0 0 0 0 0 0 0 0 0

Total # of neighbors = 36
Ave neighs/atom = 0.36
Ave special neighs/atom = 1.98
Neighbor list builds = 9821
Dangerous builds = 8265
unfix           nvtSoft
unfix           rampSoft
reset_timestep  0

write_data      ${outputfile_relaxed}
write_data      5_relaxed.data
System init for write_data ...
Generated 0 of 6 mixed pair_coeff terms from geometric mixing rule
WARNING: Communication cutoff 1.3 is shorter than a bond length based estimate of 1.7550000000000001. This may lead to errors. (src/comm.cpp:727)
WARNING: Not all mixed pair coeffs generated from mixing. Use write_data with 'pair ij' option to store all pair coeffs. (src/write_data.cpp:309)

###########################################################################
# Full LJ with Coulomb
######################################################################

# Cutoffs and parameters:
# - Values: Marcel Verkade's Bachelor Thesis
# - Mapping to atom groups: Patrick Onck's paper
# - 1: aliphatic, 2: aromatic, 3: anion, 4: cation
# pair_style	lj/cut/coul/cut <lj_cut_global> <coul_cut_global>
# pair_coeff	<type_1>  <type_2>  <eps>  <sigma>  <r_cut_lj>  <r_cut_coul>

# Problem: Onck's model is much more complex, and Marcel has no sigma reported
# Using sigma=1 randomly

variable		glob_ljeps equal 1.0
variable		glob_ljsig 	equal 1.0
variable		glob_coulcut equal 10.0
variable		att_ljcut equal 2.50
variable		rep_ljcut equal 1.12

pair_style		lj/cut/coul/cut 						${att_ljcut} 	${glob_coulcut}
pair_style		lj/cut/coul/cut 						2.5 	${glob_coulcut}
pair_style		lj/cut/coul/cut 						2.5 	10
pair_coeff		1 1 	${glob_ljeps} 	${glob_ljsig}	${att_ljcut} 	${glob_coulcut}
pair_coeff		1 1 	1 	${glob_ljsig}	${att_ljcut} 	${glob_coulcut}
pair_coeff		1 1 	1 	1	${att_ljcut} 	${glob_coulcut}
pair_coeff		1 1 	1 	1	2.5 	${glob_coulcut}
pair_coeff		1 1 	1 	1	2.5 	10
pair_coeff		1 2 	${glob_ljeps} 	${glob_ljsig}	${att_ljcut} 	${glob_coulcut}
pair_coeff		1 2 	1 	${glob_ljsig}	${att_ljcut} 	${glob_coulcut}
pair_coeff		1 2 	1 	1	${att_ljcut} 	${glob_coulcut}
pair_coeff		1 2 	1 	1	2.5 	${glob_coulcut}
pair_coeff		1 2 	1 	1	2.5 	10
pair_coeff		1 3 	${glob_ljeps} 	${glob_ljsig}	${rep_ljcut} 	${glob_coulcut}
pair_coeff		1 3 	1 	${glob_ljsig}	${rep_ljcut} 	${glob_coulcut}
pair_coeff		1 3 	1 	1	${rep_ljcut} 	${glob_coulcut}
pair_coeff		1 3 	1 	1	1.12 	${glob_coulcut}
pair_coeff		1 3 	1 	1	1.12 	10
pair_coeff		1 4 	${glob_ljeps} 	${glob_ljsig}	${rep_ljcut} 	${glob_coulcut}
pair_coeff		1 4 	1 	${glob_ljsig}	${rep_ljcut} 	${glob_coulcut}
pair_coeff		1 4 	1 	1	${rep_ljcut} 	${glob_coulcut}
pair_coeff		1 4 	1 	1	1.12 	${glob_coulcut}
pair_coeff		1 4 	1 	1	1.12 	10
pair_coeff		2 2 	${glob_ljeps} 	${glob_ljsig}	${att_ljcut} 	${glob_coulcut}
pair_coeff		2 2 	1 	${glob_ljsig}	${att_ljcut} 	${glob_coulcut}
pair_coeff		2 2 	1 	1	${att_ljcut} 	${glob_coulcut}
pair_coeff		2 2 	1 	1	2.5 	${glob_coulcut}
pair_coeff		2 2 	1 	1	2.5 	10
pair_coeff		2 3 	${glob_ljeps} 	${glob_ljsig}	${rep_ljcut} 	${glob_coulcut}
pair_coeff		2 3 	1 	${glob_ljsig}	${rep_ljcut} 	${glob_coulcut}
pair_coeff		2 3 	1 	1	${rep_ljcut} 	${glob_coulcut}
pair_coeff		2 3 	1 	1	1.12 	${glob_coulcut}
pair_coeff		2 3 	1 	1	1.12 	10
pair_coeff		2 4 	${glob_ljeps} 	${glob_ljsig}	${att_ljcut} 	${glob_coulcut}
pair_coeff		2 4 	1 	${glob_ljsig}	${att_ljcut} 	${glob_coulcut}
pair_coeff		2 4 	1 	1	${att_ljcut} 	${glob_coulcut}
pair_coeff		2 4 	1 	1	2.5 	${glob_coulcut}
pair_coeff		2 4 	1 	1	2.5 	10
pair_coeff		3 3 	${glob_ljeps} 	${glob_ljsig}	${rep_ljcut} 	${glob_coulcut}
pair_coeff		3 3 	1 	${glob_ljsig}	${rep_ljcut} 	${glob_coulcut}
pair_coeff		3 3 	1 	1	${rep_ljcut} 	${glob_coulcut}
pair_coeff		3 3 	1 	1	1.12 	${glob_coulcut}
pair_coeff		3 3 	1 	1	1.12 	10
pair_coeff		3 4 	${glob_ljeps} 	${glob_ljsig}	${att_ljcut} 	${glob_coulcut}
pair_coeff		3 4 	1 	${glob_ljsig}	${att_ljcut} 	${glob_coulcut}
pair_coeff		3 4 	1 	1	${att_ljcut} 	${glob_coulcut}
pair_coeff		3 4 	1 	1	2.5 	${glob_coulcut}
pair_coeff		3 4 	1 	1	2.5 	10
pair_coeff		4 4 	${glob_ljeps} 	${glob_ljsig}	${rep_ljcut} 	${glob_coulcut}
pair_coeff		4 4 	1 	${glob_ljsig}	${rep_ljcut} 	${glob_coulcut}
pair_coeff		4 4 	1 	1	${rep_ljcut} 	${glob_coulcut}
pair_coeff		4 4 	1 	1	1.12 	${glob_coulcut}
pair_coeff		4 4 	1 	1	1.12 	10


fix             noDriftRot 	all momentum 10 linear 1 1 1 angular
fix             nvt1 		all nvt temp ${Temp} ${Temp} 0.5
fix             nvt1 		all nvt temp 1 ${Temp} 0.5
fix             nvt1 		all nvt temp 1 1 0.5

# dump          assemble 	all custom 1000 				${outputfile_selfasb} id type xu yu zu vx vy vz
dump            lindump 	all custom ${subsample_rate} 	${outputfile_trajlin} id type xu yu zu vx vy vz
dump            lindump 	all custom 1000 	${outputfile_trajlin} id type xu yu zu vx vy vz
dump            lindump 	all custom 1000 	6_b_trajlin.data id type xu yu zu vx vy vz

run             ${runtime}
run             1000000
Generated 0 of 6 mixed pair_coeff terms from geometric mixing rule
Neighbor list info ...
  update every 1 steps, delay 10 steps, check yes
  max neighbors/atom: 2000, page size: 100000
  master list distance cutoff = 10.3
  ghost atom cutoff = 10.3
  binsize = 5.15, bins = 7 7 7
  1 neighbor lists, perpetual/occasional/extra = 1 0 0
  (1) pair lj/cut/coul/cut, perpetual
      attributes: half, newton on
      pair build: half/bin/newton
      stencil: half/bin/3d
      bin: standard
Per MPI rank memory allocation (min/avg/max) = 7.712 | 7.712 | 7.712 Mbytes
   Step          Temp         Density         Press          TotEng         PotEng         KinEng         E_pair         S/CPU     
         0   1.1904942      0.0023323615  -0.0012251545   21.970455      20.202572      1.7678839     -0.34576241     0            
      1000   1.0083606      0.0023323615   0.0030816259   21.197085      19.699669      1.4974155     -0.77412896     33052.189    
      2000   1.0079996      0.0023323615  -0.0045633274   21.186288      19.689408      1.4968795     -0.83013904     29433.593    
      3000   0.9493659      0.0023323615   0.0017403776   20.845311      19.435502      1.4098084     -1.0865703      24176.948    
      4000   1.0954952      0.0023323615  -0.0017409314   20.598303      18.971493      1.6268103     -1.4981272      19139.801    
      5000   0.94064254     0.0023323615  -0.0017428596   20.756559      19.359705      1.3968542     -1.1622777      18399.009    
      6000   1.0260815      0.0023323615  -0.0018014974   20.87573       19.351999      1.523731      -1.1734299      18147.539    
      7000   0.89453829     0.0023323615   0.00413553     20.241738      18.913348      1.3283894     -1.5763964      18352.236    
      8000   0.91737446     0.0023323615   0.0028786498   20.442827      19.080526      1.3623011     -1.406217       17988.852    
      9000   0.92192102     0.0023323615   0.0055292211   20.336196      18.967144      1.3690527     -1.6223925      18016.352    
     10000   0.91210294     0.0023323615  -0.005722579    20.344525      18.990052      1.3544729     -1.6065381      18046.787    
     11000   1.0173814      0.0023323615  -0.0010562082   20.342249      18.831438      1.5108114     -1.631655       18024.622    
     12000   0.98353536     0.0023323615  -0.0011671692   20.618495      19.157945      1.46055       -1.2841352      18185.819    
     13000   0.88554874     0.0023323615  -0.00037823765  20.554632      19.239592      1.3150399     -1.1939348      18403.036    
     14000   1.0501222      0.0023323615  -0.0020249563   20.755736      19.196305      1.5594314     -1.2791674      18367.957    
     15000   1.0913593      0.0023323615   0.0015591526   20.773076      19.152408      1.6206685     -1.2724952      19311.176    
     16000   1.1203628      0.0023323615  -0.001431911    21.11082       19.447081      1.6637388     -1.0716381      21134.022    
     17000   0.92211237     0.0023323615  -0.00084991916  20.66042       19.291084      1.3693369     -1.1240107      22414.964    
     18000   0.95874065     0.0023323615   0.00044035798  20.715035      19.291305      1.4237299     -1.1007407      22014.23     
     19000   0.96039826     0.0023323615   0.0032897829   20.682026      19.255835      1.4261914     -1.1424281      20732.659    
     20000   0.9932366      0.0023323615   0.002385037    20.768052      19.293096      1.4749564     -1.1435893      18843.893    
     21000   1.0552725      0.0023323615  -0.0020275103   20.54176       18.97468       1.5670797     -1.5922093      18321.486    
     22000   1.025558       0.0023323615   0.00025210804  20.824673      19.301719      1.5229536     -1.2966532      18371.94     
     23000   0.92022111     0.0023323615   0.0009023204   20.782873      19.416344      1.3665284     -1.2211142      18434.673    
     24000   0.98303848     0.0023323615   0.0049216245   20.45473       18.994917      1.4598121     -1.4921206      18171.83     
     25000   0.92892498     0.0023323615   0.0009223009   20.601731      19.222278      1.3794536     -1.2877934      18132.885    
     26000   0.96558465     0.0023323615   0.0032304884   20.688674      19.254781      1.4338932     -1.2876805      18062.018    
     27000   1.1592791      0.0023323615   0.0039202427   20.932558      19.211029      1.7215295     -1.352063       18161.689    
     28000   0.9773195      0.0023323615  -0.0015231595   20.792128      19.340809      1.4513195     -1.3607508      18325.856    
     29000   1.0516403      0.0023323615   0.0017056285   20.864221      19.302536      1.5616858     -1.1763212      18280.93     
     30000   0.99666536     0.0023323615  -0.0017061003   20.751739      19.27169       1.4800481     -1.3059069      18314.141    
     31000   0.88904662     0.0023323615  -0.002739094    20.48112       19.160885      1.3202342     -1.3417573      18263.813    
     32000   0.98128853     0.0023323615  -0.0024807468   20.711362      19.254149      1.4572135     -1.2524492      18261.671    
     33000   1.0728917      0.0023323615   0.0031106027   20.864189      19.270945      1.5932441     -1.3637797      18182.42     
     34000   1.0498778      0.0023323615   0.0060508559   20.726088      19.167019      1.5590685     -1.3931836      18271.071    
     35000   1.0320267      0.0023323615  -0.0042242886   20.72919       19.19663       1.5325596     -1.3091466      18241.119    
     36000   0.93615292     0.0023323615   0.0032042183   20.199243      18.809056      1.3901871     -1.6850117      18184.036    
     37000   1.0127413      0.0023323615   0.00113383     20.842403      19.338482      1.5039209     -1.2958095      18160.846    
     38000   0.95295576     0.0023323615   0.0025678618   20.523974      19.108834      1.4151393     -1.3398543      18390.429    
     39000   0.91542831     0.0023323615  -0.0042537279   20.757857      19.398446      1.359411      -1.279463       18330.632    
     40000   1.0022065      0.0023323615   0.0049026295   20.773539      19.285262      1.4882766     -1.1782535      18576.063    
     41000   1.0051798      0.0023323615  -0.0032057383   20.903916      19.411224      1.4926921     -1.2360768      18934.738    
     42000   1.0195676      0.0023323615   0.00083628225  20.92997       19.415912      1.5140579     -1.1374787      18892.541    
     43000   0.96399318     0.0023323615  -0.00047996828  20.89856       19.46703       1.4315299     -1.0037579      18631.015    
     44000   1.0674697      0.0023323615   0.0023560399   21.033982      19.44879       1.5851925     -1.1783487      18409.726    
     45000   0.97470721     0.0023323615   0.0028596196   20.820936      19.373496      1.4474402     -1.1560829      18425.886    
     46000   1.0258791      0.0023323615   0.0020145864   20.800939      19.277508      1.5234305     -1.2268545      18252.721    
     47000   1.0953828      0.0023323615   0.0057051427   21.089859      19.463216      1.6266434     -1.1585996      18214.565    
     48000   1.0062184      0.0023323615   0.0060258914   20.649821      19.155586      1.4942344     -1.3287632      18078.411    
     49000   1.0773042      0.0023323615   0.0059214595   20.55828       18.958483      1.5997968     -1.4050434      18094.192    
     50000   1.1249307      0.0023323615   0.0065649192   21.006788      19.336266      1.6705221     -1.117115       18247.779    
     51000   0.79873522     0.0023323615  -0.0020998849   20.470487      19.284365      1.1861218     -1.2188989      18200.018    
     52000   1.0352504      0.0023323615  -0.0039749136   20.749745      19.212399      1.5373468     -1.2947582      18301.511    
     53000   0.98710025     0.0023323615   0.00022653589  20.565231      19.099387      1.4658439     -1.479383       18356.185    
     54000   1.2045674      0.0023323615   0.0030447323   20.713811      18.925028      1.7887826     -1.4480548      18151.318    
     55000   1.058945       0.0023323615  -8.4158339e-05  20.646218      19.073685      1.5725334     -1.5630561      18341.357    
     56000   1.0798977      0.0023323615  -0.0046958457   20.944378      19.34073       1.6036481     -1.2841096      18242.926    
     57000   1.0370711      0.0023323615   0.00051553192  20.555         19.01495       1.5400506     -1.3669075      18248.269    
     58000   0.83782074     0.0023323615   0.0038408909   20.342678      19.098515      1.2441638     -1.4437529      18360.294    
     59000   0.90427316     0.0023323615  -0.00010381594  20.562524      19.219679      1.3428456     -1.2995959      18403.592    
     60000   0.94040725     0.0023323615  -0.0004771524   20.565564      19.16906       1.3965048     -1.350411       18199.627    
     61000   1.1025554      0.0023323615  -0.0018074878   20.517749      18.880454      1.6372948     -1.6003013      18295.888    
     62000   1.0272766      0.0023323615  -0.0029998337   20.570904      19.045398      1.5255058     -1.5242353      18216.999    
     63000   1.0228475      0.0023323615   0.00038998669  20.33821       18.819281      1.5189285     -1.5904862      18188.231    
     64000   0.8856642      0.0023323615  -0.00020402044  20.516611      19.2014        1.3152113     -1.4889018      18158.405    
     65000   1.029776       0.0023323615   9.7944186e-05  20.601511      19.072294      1.5292174     -1.4867817      18140.343    
     66000   0.97520382     0.0023323615   0.0032680916   20.791327      19.343149      1.4481777     -1.3231283      18133.35     
     67000   1.0024471      0.0023323615  -0.0064810088   20.914939      19.426305      1.488634      -1.2610521      18189.457    
     68000   0.94440331     0.0023323615   0.0011582176   20.712669      19.31023       1.4024389     -1.3988853      18172.988    
     69000   1.1224274      0.0023323615   0.00078169537  20.713435      19.04663       1.6668047     -1.3948973      18132.711    
     70000   1.0161669      0.0023323615  -0.00070502259  20.498539      18.989531      1.5090078     -1.4328629      18158.937    
     71000   0.95177217     0.0023323615  -0.0049135029   20.541109      19.127727      1.4133817     -1.5351193      18127.053    
     72000   1.0516391      0.0023323615   0.0016657537   20.924495      19.362811      1.5616841     -1.1262739      18189.163    
     73000   1.0056659      0.0023323615   0.0016649838   21.107018      19.613605      1.4934139     -0.96440077     18674.508    
     74000   0.96880043     0.0023323615   0.0023210067   20.613597      19.174929      1.4386686     -1.3147073      18366.825    
     75000   0.86947726     0.0023323615   0.0053663687   20.545616      19.254442      1.2911737     -1.3985014      18183.854    
     76000   0.89854532     0.0023323615  -0.0019962144   20.494156      19.159816      1.3343398     -1.4382565      18160.377    
     77000   1.2563069      0.0023323615   0.0043683111   20.764739      18.899123      1.8656158     -1.6543213      18067.782    
     78000   1.1071075      0.0023323615   0.0026866755   20.705753      19.061698      1.6440546     -1.49721        18078.467    
     79000   0.96039693     0.0023323615  -0.001991257    20.481941      19.055752      1.4261894     -1.4267143      18183.708    
     80000   0.96347651     0.0023323615   0.0016342062   20.442134      19.011371      1.4307626     -1.4621726      18158.431    
     81000   0.98099697     0.0023323615  -0.00022657506  20.647512      19.190732      1.4567805     -1.4487926      18184.487    
     82000   1.01541        0.0023323615   0.00068948559  20.741842      19.233959      1.5078839     -1.3617817      18352.037    
     83000   0.96487452     0.0023323615  -0.0032879582   20.545183      19.112344      1.4328387     -1.3703137      18348.056    
     84000   0.88420382     0.0023323615   0.0023047693   20.455502      19.142459      1.3130427     -1.3469136      18322.213    
     85000   0.94977505     0.0023323615   0.003989354    20.719829      19.309413      1.410416      -1.1996377      18239.836    
     86000   1.0817748      0.0023323615  -0.0010424751   20.667004      19.060568      1.6064355     -1.3983037      18285.377    
     87000   1.0056076      0.0023323615  -0.0020404456   20.93632       19.442993      1.4933273     -1.1638451      18300.544    
     88000   0.90164886     0.0023323615  -0.0005124246   20.519694      19.180746      1.3389486     -1.2729092      18213.618    
     89000   1.0099713      0.0023323615  -0.0020140687   20.427889      18.928082      1.4998074     -1.5382591      18225.591    
     90000   0.89531254     0.0023323615   0.00058457357  20.622914      19.293375      1.3295391     -1.3379556      18240.022    
     91000   0.85513411     0.0023323615   0.0017438122   19.983055      18.713181      1.2698741     -1.7254849      18078.005    
     92000   0.95514922     0.0023323615  -0.00315672     20.548722      19.130325      1.4183966     -1.3575924      18127.968    
     93000   0.97870558     0.0023323615   0.0045669452   20.732554      19.279176      1.4533778     -1.2483759      18186.173    
     94000   1.0572533      0.0023323615  -0.0027972157   20.734504      19.164483      1.5700212     -1.3527007      18297.445    
     95000   1.0390887      0.0023323615  -0.0010181781   20.537969      18.994923      1.5430467     -1.4034315      18490.698    
     96000   0.88421438     0.0023323615  -0.0038578373   20.458335      19.145276      1.3130583     -1.3228567      18180.804    
     97000   0.97691762     0.0023323615   0.0011743315   20.64112       19.190398      1.4507227     -1.2621605      18221        
     98000   1.073473       0.0023323615   0.0022159528   20.796991      19.202884      1.5941075     -1.3790503      18351.348    
     99000   1.0881498      0.0023323615  -0.0026070976   20.932039      19.316136      1.6159025     -1.3425261      18178.87     
    100000   1.0019666      0.0023323615  -0.0045160952   20.750134      19.262214      1.4879204     -1.5677637      18095.015    
    101000   0.98738495     0.0023323615  -0.0063035137   20.600263      19.133996      1.4662666     -1.4324733      18058.051    
    102000   1.0377857      0.0023323615   0.0011112645   20.899801      19.358689      1.5411118     -1.1688663      18137.231    
    103000   1.0053695      0.0023323615  -0.0014096293   20.906646      19.413673      1.4929737     -1.0714186      18221.382    
    104000   0.86127293     0.0023323615  -0.00044873766  20.521833      19.242842      1.2789903     -1.3037986      18299.786    
    105000   0.99012976     0.0023323615  -0.0015160366   20.650277      19.179934      1.4703427     -1.2606499      18176.222    
    106000   0.90433121     0.0023323615  -0.0014749165   20.732112      19.38918       1.3429318     -1.142458       18433.226    
    107000   1.0016709      0.0023323615   0.0018469042   20.748624      19.261143      1.4874813     -1.2401547      18619.372    
    108000   1.0077761      0.0023323615   0.0033340253   20.756553      19.260006      1.4965475     -1.2754066      18471.313    
    109000   0.91262445     0.0023323615   0.00069676628  20.808028      19.452781      1.3552473     -0.92217293     19125.355    
    110000   0.95843577     0.0023323615   0.0023206267   20.690465      19.267188      1.4232771     -1.191207       20838.608    
    111000   1.0182741      0.0023323615  -0.0038138351   21.039068      19.526931      1.512137      -1.1051659      23267.892    
    112000   1.0696908      0.0023323615  -0.0029180733   21.13194       19.543449      1.5884909     -1.0455774      24651.047    
    113000   1.0688302      0.0023323615   0.0010351794   21.203664      19.616451      1.5872129     -0.91668427     22888.113    
    114000   1.0855747      0.0023323615   0.002526597    21.211644      19.599566      1.6120784     -0.97346119     21617.069    
    115000   1.1022938      0.0023323615  -0.0021995194   21.051255      19.414348      1.6369063     -1.0478869      20276.675    
    116000   0.94848639     0.0023323615   0.00065001703  20.714504      19.306001      1.4085023     -1.2523784      18458.445    
    117000   1.034009       0.0023323615  -0.00047772823  20.795757      19.260254      1.5355033     -1.244436       18199.046    
    118000   0.99852356     0.0023323615  -0.00060900428  20.766255      19.283448      1.4828075     -1.2803882      18485.466    
    119000   0.9529932      0.0023323615  -0.0013194113   20.564084      19.148889      1.4151949     -1.4482004      18133.013    
    120000   1.1162137      0.0023323615   0.00030436768  20.649746      18.992168      1.6575774     -1.4599967      18141.497    
    121000   1.0096487      0.0023323615  -0.00057328911  20.501661      19.002333      1.4993283     -1.4717175      18127.507    
    122000   0.99040504     0.0023323615   0.0025898796   20.649401      19.17865       1.4707515     -1.3717122      18238.219    
    123000   0.95189346     0.0023323615  -0.00065595188  20.643444      19.229882      1.4135618     -1.2668616      18473.583    
    124000   1.0161774      0.0023323615   0.0013917612   20.790889      19.281865      1.5090234     -1.3037679      18371.818    
    125000   0.99957456     0.0023323615   0.00073315894  20.591126      19.106757      1.4843682     -1.3504595      18371.493    
    126000   0.9765297      0.0023323615  -0.00026892409  20.490374      19.040228      1.4501466     -1.3993058      18339.116    
    127000   0.94672769     0.0023323615  -0.0010496652   20.703506      19.297615      1.4058906     -1.2549202      18227.744    
    128000   1.0339314      0.0023323615  -0.0018761548   20.940824      19.405435      1.5353881     -1.1794744      18482.83     
    129000   1.0907134      0.0023323615  -0.00054189058  21.220761      19.601052      1.6197094     -1.0366927      18771.882    
    130000   1.0435316      0.0023323615  -0.0011836438   20.908608      19.358963      1.5496445     -1.1548072      19283.399    
    131000   0.96168944     0.0023323615  -0.0070746649   20.965918      19.537809      1.4281088     -1.0060575      18848.014    
    132000   0.96947893     0.0023323615   0.0026808535   20.649283      19.209607      1.4396762     -1.3060953      18512.177    
    133000   1.1187719      0.0023323615   0.0033858803   20.952464      19.291088      1.6613763     -1.3725601      18366.308    
    134000   0.99443273     0.0023323615   0.00056942217  20.731656      19.254923      1.4767326     -1.4229815      18276.136    
    135000   1.0083739      0.0023323615   0.0011028562   20.684675      19.18724       1.4974352     -1.4044423      18236.164    
    136000   1.1220251      0.0023323615   0.0024045195   20.989089      19.322882      1.6662072     -1.1959662      18259.129    
    137000   0.968098       0.0023323615  -0.0011082486   20.501969      19.064344      1.4376255     -1.3760139      18078.182    
    138000   1.0232748      0.0023323615   0.00023118456  20.873864      19.354301      1.519563      -1.1709592      18159.686    
    139000   0.99806403     0.0023323615   0.00020676011  20.853398      19.371273      1.4821251     -1.1918921      18216.803    
    140000   1.0182615      0.0023323615  -0.00071691749  20.704383      19.192264      1.5121183     -1.2422228      18408.735    
    141000   0.89523105     0.0023323615   7.6813346e-05  20.82347       19.494052      1.3294181     -1.0588449      18492.918    
    142000   0.92662293     0.0023323615   0.00085656455  20.612192      19.236156      1.3760351     -1.1821105      18352.354    
    143000   0.93479251     0.0023323615   0.0014401657   20.555112      19.166945      1.3881669     -1.3916019      18110.88     
    144000   1.000657       0.0023323615   0.0041455974   20.69059       19.204615      1.4859757     -1.2786123      18169.723    
    145000   0.98852034     0.0023323615  -0.0018134839   20.606742      19.13879       1.4679527     -1.4278721      18038.74     
    146000   0.88189708     0.0023323615  -0.0019147039   20.172363      18.862746      1.3096172     -1.6858802      18210.747    
    147000   0.97825428     0.0023323615   0.0002342883   20.529268      19.07656       1.4527076     -1.4026939      18143.967    
    148000   1.0982233      0.0023323615  -9.626743e-05   20.688541      19.057679      1.6308616     -1.3668478      18159.743    
    149000   1.0276846      0.0023323615   0.0026068689   20.475889      18.949777      1.5261116     -1.6081338      18102.547    
    150000   0.97111099     0.0023323615   0.00068207806  20.606473      19.164374      1.4420998     -1.4232998      18222.08     
    151000   0.92858291     0.0023323615  -0.00030032606  20.610628      19.231683      1.3789456     -1.3548827      18219.929    
    152000   1.1262487      0.0023323615   0.003746998    20.769242      19.096763      1.6724793     -1.3165658      18185.434    
    153000   1.0989153      0.0023323615  -0.00030199259  20.757933      19.126044      1.6318892     -1.4069549      18294.326    
    154000   0.92526967     0.0023323615  -0.0039421536   20.33517       18.961145      1.3740255     -1.4861878      18599.405    
    155000   0.98338099     0.0023323615   7.3392451e-06  20.467257      19.006936      1.4603208     -1.5129661      18257.933    
    156000   0.96147531     0.0023323615  -0.0026777616   20.618867      19.191076      1.4277908     -1.4226189      18574.179    
    157000   0.8918957      0.0023323615  -0.0010863031   20.346637      19.022172      1.3244651     -1.4105197      18574.615    
    158000   1.0423979      0.0023323615  -0.0021309422   20.814978      19.267017      1.5479608     -1.2081238      18724.05     
    159000   0.99553529     0.0023323615   0.0013294696   20.577121      19.098752      1.4783699     -1.3163376      18388.745    
    160000   1.2087167      0.0023323615  -5.2346555e-05  21.268475      19.473531      1.7949443     -1.133998       18621.057    
    161000   0.96267825     0.0023323615   0.0014162816   20.656725      19.227148      1.4295772     -1.2658653      18572.199    
    162000   1.0904891      0.0023323615   0.0011307354   20.78036       19.160984      1.6193763     -1.3431899      18546.158    
    163000   1.0100641      0.0023323615  -0.0001553079   20.579058      19.079113      1.4999453     -1.4160913      18442.586    
    164000   0.88105628     0.0023323615  -0.0040454039   20.568063      19.259695      1.3083686     -1.3282717      18401.441    
    165000   0.98690095     0.0023323615   0.0038087359   20.660423      19.194875      1.4655479     -1.415988       18327.101    
    166000   0.93938978     0.0023323615   0.00071511457  20.338044      18.94305       1.3949938     -1.672332       18263.242    
    167000   1.0695257      0.0023323615  -0.0028657515   20.66285       19.074604      1.5882457     -1.4718089      18365.362    
    168000   0.99890564     0.0023323615   0.0044866609   20.392995      18.90962       1.4833749     -1.631805       18498.728    
    169000   1.0361844      0.0023323615  -0.0019612506   20.728689      19.189955      1.5387339     -1.4711032      18216.088    
    170000   0.90019786     0.0023323615   0.0014146923   20.31654       18.979746      1.3367938     -1.5356103      18252.458    
    171000   1.0440756      0.0023323615  -0.0019428085   20.524222      18.97377       1.5504522     -1.5892814      18301.964    
    172000   0.99895635     0.0023323615   0.002806757    20.842469      19.359019      1.4834502     -1.2147353      18364.902    
    173000   0.87875448     0.0023323615  -0.0057176543   20.358464      19.053513      1.3049504     -1.5288315      18266.082    
    174000   0.85095979     0.0023323615  -0.0026707513   20.71728       19.453605      1.2636753     -1.1822974      18282.091    
    175000   0.95475741     0.0023323615   0.00049922558  20.716207      19.298393      1.4178148     -1.2492344      18499.66     
    176000   1.0177581      0.0023323615  -0.0012044828   20.810465      19.299094      1.5113707     -1.2200966      18924.672    
    177000   1.0415497      0.0023323615  -0.00069182289  21.071536      19.524834      1.5467013     -0.95017996     19736.826    
    178000   0.87962909     0.0023323615  -0.00071261246  20.607123      19.300874      1.3062492     -1.1334802      19886.658    
    179000   0.97607438     0.0023323615   0.0017334061   20.876648      19.427177      1.4494705     -1.0397664      19883.295    
    180000   1.0039284      0.0023323615   8.7096892e-05  20.715793      19.224959      1.4908337     -1.2540732      19526.142    
    181000   0.89264597     0.0023323615   0.0024647126   20.591298      19.265719      1.3255793     -1.1766074      20197.252    
    182000   1.001336       0.0023323615  -0.0031997298   20.973826      19.486842      1.4869839     -1.0254625      19859.305    
    183000   0.99149312     0.0023323615  -0.0013256053   20.639394      19.167027      1.4723673     -1.1745745      19080.706    
    184000   0.97505244     0.0023323615   0.0030362848   20.670179      19.222226      1.4479529     -1.1854078      18493.329    
    185000   0.90723853     0.0023323615  -0.0060566457   21.011116      19.663867      1.3472492     -0.92777603     18426.107    
    186000   1.0266558      0.0023323615  -0.0012589577   20.94122       19.416636      1.5245838     -1.0844926      18621.13     
    187000   1.0537107      0.0023323615   0.00012821202  20.707099      19.142338      1.5647604     -1.338342       18646.396    
    188000   1.0874432      0.0023323615  -0.0026330385   21.173727      19.558873      1.6148531     -1.0389303      18482.512    
    189000   1.0797787      0.0023323615   0.0016145438   21.053326      19.449855      1.6034714     -1.1123179      18581.956    
    190000   0.96177344     0.0023323615   9.928585e-05   20.852996      19.424762      1.4282336     -1.0906935      18479.538    
    191000   0.88768915     0.0023323615  -0.0014736296   20.593082      19.274863      1.3182184     -1.2837681      18476.083    
    192000   0.94897004     0.0023323615   0.0035179754   20.747017      19.337797      1.4092205     -1.226128       18119.596    
    193000   1.0865674      0.0023323615  -0.0019860409   20.804683      19.19113       1.6135526     -1.3627743      18272.433    
    194000   1.0010612      0.0023323615  -6.5571551e-05  20.832283      19.345707      1.4865758     -1.2824813      18137.198    
    195000   0.95296177     0.0023323615  -0.0042336042   20.370737      18.955589      1.4151482     -1.5122705      18177.377    
    196000   1.0754108      0.0023323615   0.0029183683   20.897192      19.300207      1.596985      -1.126097       18384.427    
    197000   1.0189041      0.0023323615   0.00048831932  20.801931      19.288858      1.5130726     -1.2364526      18255.302    
    198000   0.96986899     0.0023323615   0.00081699269  20.82657       19.386314      1.4402555     -1.1821578      18323.336    
    199000   1.0190781      0.0023323615  -0.0011953287   20.921492      19.408161      1.513331      -1.1083408      18474.011    
    200000   0.93320942     0.0023323615   0.0030107443   20.40424       19.018424      1.385816      -1.4681699      18619.33     
    201000   0.87966825     0.0023323615   0.0036828008   20.646857      19.34055       1.3063074     -1.1953887      18567.486    
    202000   1.0128245      0.0023323615   0.00019322769  20.815475      19.311431      1.5040443     -1.3417853      18466.05     
    203000   0.95641753     0.0023323615  -0.00034306034  20.400701      18.980421      1.42028       -1.5592083      18355.8      
    204000   1.1311385      0.0023323615  -0.0011419165   20.92574       19.245999      1.6797407     -1.3243034      18351.153    
    205000   1.1129151      0.0023323615   0.0018031882   20.734016      19.081337      1.652679      -1.4413435      18513.914    
    206000   0.98141397     0.0023323615  -0.0032348165   20.500786      19.043386      1.4573997     -1.449367       18444.552    
    207000   1.0324866      0.0023323615   0.0012755997   20.593277      19.060034      1.5332426     -1.4057359      18360.693    
    208000   0.82044711     0.0023323615  -0.0018067368   20.493269      19.274905      1.218364      -1.1367739      18319.771    
    209000   1.0392106      0.0023323615  -0.0011936445   20.729845      19.186617      1.5432278     -1.2247101      18478.966    
    210000   1.0409936      0.0023323615   0.0023243495   20.975687      19.429811      1.5458754     -1.1909562      18534.738    
    211000   1.1271874      0.0023323615   0.0012796377   21.014022      19.340149      1.6738733     -1.2964782      18264.12     
    212000   0.93377552     0.0023323615   0.0029976159   20.644011      19.257355      1.3866566     -1.3251548      18363.831    
    213000   0.88960992     0.0023323615   0.0020501974   20.44242       19.121349      1.3210707     -1.4074029      18337.478    
    214000   1.0573041      0.0023323615  -0.0052733378   20.801062      19.230965      1.5700966     -1.4088033      18412.576    
    215000   0.94535598     0.0023323615   0.0039765796   20.586523      19.182669      1.4038536     -1.3634609      18342.584    
    216000   1.0824168      0.0023323615  -0.0054481743   20.789738      19.182349      1.6073889     -1.344124       18337.95     
    217000   1.0958312      0.0023323615  -0.00052412059  20.544794      18.917485      1.6273093     -1.5004626      18254.023    
    218000   0.95479253     0.0023323615   0.0023052694   20.633421      19.215554      1.4178669     -1.2847567      18352.135    
    219000   1.0623427      0.0023323615  -0.0013597103   20.46428       18.886701      1.5775789     -1.5336864      18316.853    
    220000   1.0953156      0.0023323615   0.0011834768   20.866753      19.240209      1.6265436     -1.3537718      18272.315    
    221000   1.0818733      0.0023323615  -0.0033426803   21.022439      19.415857      1.6065818     -1.2232171      18348.788    
    222000   0.96886844     0.0023323615   0.0027297009   20.354364      18.915594      1.4387696     -1.5560723      18397.497    
    223000   0.9452623      0.0023323615   0.0023742898   20.860212      19.456498      1.4037145     -1.0637152      18471.224    
    224000   0.93339517     0.0023323615   0.00248799     20.454105      19.068013      1.3860918     -1.5238389      18425.029    
    225000   0.91481218     0.0023323615  -0.001064554    20.387675      19.029178      1.3584961     -1.440636       18287.059    
    226000   1.0087228      0.0023323615  -0.0055547216   20.750694      19.252741      1.4979534     -1.3527633      18422.863    
    227000   0.99646324     0.0023323615  -0.0032994468   20.625558      19.14581       1.4797479     -1.4878426      18278.208    
    228000   1.1354267      0.0023323615   0.0010247488   20.794811      19.108703      1.6861086     -1.5531064      18433.682    
    229000   1.0806882      0.0023323615   0.0013290836   20.8527        19.247878      1.604822      -1.3829555      18382.344    
    230000   0.99501881     0.0023323615   1.5261544e-05  20.615632      19.138029      1.4776029     -1.4415797      18371.311    
    231000   1.1299856      0.0023323615   8.8576855e-05  20.994016      19.315987      1.6780287     -1.2809537      18332.574    
    232000   0.97394264     0.0023323615  -0.0029430706   20.629001      19.182696      1.4463048     -1.2228117      18414.954    
    233000   0.9815293      0.0023323615   0.0023947503   20.898002      19.440431      1.457571      -1.1881859      18419.228    
    234000   0.9861783      0.0023323615  -0.0037475844   20.682309      19.217834      1.4644748     -1.3488452      18418.556    
    235000   1.1599816      0.0023323615   0.006430833    21.121559      19.398986      1.7225727     -1.2602818      18376.732    
    236000   1.0908983      0.0023323615  -2.3391374e-06  20.825645      19.205661      1.619984      -1.399918       18440.933    
    237000   0.94820319     0.0023323615  -0.00068988579  20.277734      18.869652      1.4080817     -1.5769128      18429.455    
    238000   1.1199518      0.0023323615   0.00089020275  21.118769      19.455641      1.6631284     -1.0179371      18515.934    
    239000   1.1126394      0.0023323615  -0.0020777837   20.965321      19.313051      1.6522696     -1.2535237      18814.014    
    240000   0.86745003     0.0023323615   0.0037130506   20.548496      19.260332      1.2881633     -1.2823129      18867.527    
    241000   1.0625589      0.0023323615  -0.0053799008   20.858024      19.280124      1.5778999     -1.1815148      18845.032    
    242000   0.8467231      0.0023323615   0.0016138684   20.087789      18.830405      1.2573838     -1.6551145      18428.737    
    243000   1.1549823      0.0023323615   0.0027100904   20.785575      19.070427      1.7151487     -1.4158541      18287.749    
    244000   1.0431873      0.0023323615  -0.0013329318   20.848614      19.299481      1.5491332     -1.3317736      18431.599    
    245000   0.9991951      0.0023323615  -0.00089655967  20.418799      18.934994      1.4838047     -1.6143096      18372.964    
    246000   0.93700921     0.0023323615  -8.2792117e-05  20.511389      19.119931      1.3914587     -1.2457196      18366.741    
    247000   0.98720453     0.0023323615  -0.0025190195   20.433664      18.967665      1.4659987     -1.5409484      18198.548    
    248000   0.8300631      0.0023323615   0.001052598    20.207851      18.975208      1.2326437     -1.3610169      18219.124    
    249000   0.87167646     0.0023323615  -0.007214228    20.393232      19.098792      1.2944395     -1.5002498      18291.322    
    250000   1.0877826      0.0023323615  -0.00099945961  20.62395       19.008593      1.6153571     -1.4480787      18311.893    
    251000   1.0013531      0.0023323615  -0.00017523063  20.79468       19.307671      1.4870093     -1.2832103      18381.332    
    252000   0.99326426     0.0023323615   0.0021784168   20.708542      19.233544      1.4749974     -1.36846        18478.946    
    253000   1.0368398      0.0023323615   0.0010586015   20.688552      19.148845      1.5397071     -1.400594       18265.287    
    254000   0.9968652      0.0023323615  -0.00016668756  20.720952      19.240607      1.4803448     -1.3642138      18293.303    
    255000   0.95581756     0.0023323615  -0.0024966577   20.713326      19.293937      1.4193891     -1.4021908      18225.618    
    256000   0.96628735     0.0023323615   0.00018495722  20.491063      19.056126      1.4349367     -1.4964263      18343.093    
    257000   1.0738178      0.0023323615  -0.00045127108  20.738549      19.143929      1.5946194     -1.3136649      18428.863    
    258000   1.1079171      0.0023323615   3.2343111e-05  20.637823      18.992566      1.6452569     -1.4592522      18442.562    
    259000   0.9573967      0.0023323615   0.0021394204   20.481191      19.059457      1.4217341     -1.5014135      18280.414    
    260000   1.0204091      0.0023323615   0.0014503032   20.936678      19.421371      1.5153076     -1.1514826      18501.275    
    261000   1.0580818      0.0023323615   0.0029210101   20.703101      19.13185       1.5712515     -1.3725758      18695.148    
    262000   1.1287043      0.0023323615   0.0022376232   20.692271      19.016145      1.6761258     -1.6303015      18355.209    
    263000   0.95169261     0.0023323615   0.0027014056   20.342741      18.929478      1.4132635     -1.5458294      18293.736    
    264000   1.0090227      0.0023323615   0.00014917096  20.718611      19.220212      1.4983987     -1.2182834      18371.531    
    265000   0.95981673     0.0023323615   0.0013337347   20.524931      19.099603      1.4253279     -1.3766239      18349.2      
    266000   1.063974       0.0023323615   0.0010063431   20.806505      19.226504      1.5800015     -1.3007989      18306.244    
    267000   1.018116       0.0023323615   0.00085105011  20.908865      19.396963      1.5119023     -1.3470024      18352.29     
    268000   0.95574504     0.0023323615  -0.0048996858   20.833763      19.414481      1.4192814     -1.2477829      18210.146    
    269000   0.89455458     0.0023323615   0.0037722115   20.507716      19.179302      1.3284136     -1.4623698      18509.726    
    270000   1.0410332      0.0023323615  -0.0048450574   20.978861      19.432927      1.5459343     -1.1183943      18362.003    
    271000   0.8107722      0.0023323615   0.0016665003   20.477165      19.273168      1.2039967     -1.2228808      18761.71     
    272000   0.93015407     0.0023323615  -0.0021586123   20.792748      19.411469      1.3812788     -1.0831005      19230.32     
    273000   1.1454755      0.0023323615   0.0043531911   20.890421      19.18939       1.7010312     -1.2959456      18803.671    
    274000   0.98401193     0.0023323615   0.00046111824  20.694921      19.233663      1.4612577     -1.40334        18338.061    
    275000   1.0536586      0.0023323615  -0.0012549657   20.669813      19.10513       1.564683      -1.40608        18261.046    
    276000   0.99041184     0.0023323615  -0.00029221058  20.591302      19.120541      1.4707616     -1.3679638      18210.7      
    277000   0.90901157     0.0023323615  -0.0011760324   20.456563      19.106681      1.3498822     -1.3330825      18395.279    
    278000   0.9722755      0.0023323615  -0.0011840074   20.582028      19.138199      1.4438291     -1.3961193      18540.884    
    279000   1.1934333      0.0023323615  -0.00083287571  21.063409      19.29116       1.7722484     -1.1959521      18333.992    
    280000   1.0851173      0.0023323615   0.0016946847   20.99434       19.382941      1.6113992     -1.1488675      18239.029    
    281000   1.0580233      0.0023323615   0.0013144161   20.583953      19.012788      1.5711646     -1.4011308      18242.249    
    282000   1.0779286      0.0023323615  -0.0020306581   20.78002       19.179296      1.600724      -1.2839447      18444.368    
    283000   0.9927083      0.0023323615  -0.0018011237   20.629876      19.155704      1.4741718     -1.2946654      18514.158    
    284000   1.0193707      0.0023323615  -0.0016149573   20.902422      19.388656      1.5137655     -1.1733592      18394.15     
    285000   0.95324912     0.0023323615   0.0045238232   20.588021      19.172446      1.4155749     -1.3996973      18423.369    
    286000   0.98455086     0.0023323615  -3.0735886e-05  20.555637      19.093579      1.462058      -1.4382506      18395.781    
    287000   0.83749333     0.0023323615  -0.0015920332   20.378863      19.135185      1.2436776     -1.413017       18360.389    
    288000   1.0644317      0.0023323615   0.00012859987  20.66416       19.083479      1.5806811     -1.3365097      18383.641    
    289000   1.0757343      0.0023323615   0.0012252641   20.682315      19.08485       1.5974654     -1.401803       18382.07     
    290000   1.001982       0.0023323615   0.0056209589   20.481197      18.993254      1.4879432     -1.4908015      18261.925    
    291000   1.0288376      0.0023323615  -0.0023244554   20.470353      18.942529      1.5278239     -1.6074058      18244.643    
    292000   0.9753624      0.0023323615   0.0036364335   20.708667      19.260254      1.4484132     -1.2324176      18428.867    
    293000   1.0342223      0.0023323615  -9.6717725e-05  20.457239      18.921419      1.5358201     -1.5084879      18388.318    
    294000   0.95632764     0.0023323615  -0.0029847868   20.734449      19.314302      1.4201465     -1.3968684      18272.375    
    295000   0.97847802     0.0023323615  -0.0012220674   20.505042      19.052002      1.4530399     -1.4602182      18290.806    
    296000   1.0873255      0.0023323615   0.00055300042  20.90641       19.291732      1.6146784     -1.2926346      18224.034    
    297000   0.9719652      0.0023323615   0.00059079324  20.578487      19.135119      1.4433683     -1.446205       18319.748    
    298000   0.96284471     0.0023323615   0.0012838022   20.663587      19.233762      1.4298244     -1.1491006      18409.227    
    299000   1.1808581      0.0023323615  -0.00097021328  20.931472      19.177897      1.7535743     -1.2765874      18677.995    
    300000   1.055583       0.0023323615   0.0020975774   20.796974      19.229433      1.5675407     -1.4506717      18308.255    
    301000   1.0960826      0.0023323615   0.004092602    20.743343      19.115661      1.6276827     -1.2425575      18357.491    
    302000   1.1175683      0.0023323615  -0.004402717    21.224659      19.56507       1.6595889     -1.0557159      18398.904    
    303000   1.0140194      0.0023323615  -0.0022271163   20.769787      19.263968      1.5058188     -1.3569382      18430.279    
    304000   0.95193275     0.0023323615  -0.00093777501  20.594857      19.181237      1.4136201     -1.2808057      18370.242    
    305000   1.0731864      0.0023323615   0.0044072184   20.715135      19.121453      1.5936817     -1.434739       18367.345    
    306000   0.9018303      0.0023323615  -0.0023998707   20.256174      18.916956      1.339218      -1.500184       18254.928    
    307000   0.94844943     0.0023323615   0.0041565497   20.654269      19.245822      1.4084474     -1.3755824      18321.553    
    308000   1.0170345      0.0023323615   0.0030280924   20.647929      19.137633      1.5102962     -1.4911271      18365.101    
    309000   1.0615234      0.0023323615   1.8125487e-05  20.890357      19.313994      1.5763622     -1.3539864      18308.01     
    310000   0.88638534     0.0023323615  -0.0015900329   20.280641      18.964359      1.3162822     -1.4653375      18327.636    
    311000   0.95679415     0.0023323615   0.0026690587   20.574996      19.154157      1.4208393     -1.464754       18303.575    
    312000   0.90107116     0.0023323615   0.00020720519  20.450349      19.112258      1.3380907     -1.4086598      18394.866    
    313000   0.90347003     0.0023323615  -0.0034284233   20.581979      19.240326      1.341653      -1.3390174      18353.076    
    314000   1.003729       0.0023323615  -0.00060220714  20.498737      19.0082        1.4905376     -1.4387281      18400.736    
    315000   1.1964482      0.0023323615   0.00069621824  20.686894      18.910169      1.7767255     -1.7114465      18227.129    
    316000   0.93455808     0.0023323615   0.0012985941   20.370374      18.982555      1.3878188     -1.5167802      18357.603    
    317000   0.91741517     0.0023323615  -0.0035345069   20.402907      19.040545      1.3623615     -1.356111       18424.57     
    318000   0.88514859     0.0023323615   0.0050727039   20.602242      19.287796      1.3144457     -1.1071977      18493.172    
    319000   1.0351359      0.0023323615   0.0033967084   20.888546      19.351369      1.5371768     -1.1430009      18444.501    
    320000   0.92168167     0.0023323615   0.0027678415   20.493435      19.124738      1.3686973     -1.3530034      18738.469    
    321000   1.0916192      0.0023323615   0.00075079621  20.874129      19.253075      1.6210544     -1.1628019      18987.62     
    322000   0.95611964     0.0023323615  -0.0028541411   20.55239       19.132552      1.4198377     -1.3277255      18574.861    
    323000   0.93703107     0.0023323615   0.0012940331   20.657048      19.265557      1.3914911     -1.283314       18449.158    
    324000   0.93814133     0.0023323615  -0.0017379803   20.631556      19.238416      1.3931399     -1.2789639      18333.258    
    325000   0.92412975     0.0023323615  -0.005491196    20.831199      19.458866      1.3723327     -1.1076186      18995.74     
    326000   0.95222692     0.0023323615   0.00054462717  20.867753      19.453696      1.414057      -1.0878278      19520.643    
    327000   0.91369587     0.0023323615   0.0014328566   20.539348      19.18251       1.3568384     -1.2802982      18828.274    
    328000   0.82203882     0.0023323615  -0.0019835693   20.705471      19.484743      1.2207276     -1.1574952      18322.562    
    329000   0.96040471     0.0023323615   0.00078363567  20.739382      19.313181      1.426201      -1.2219885      18518.892    
    330000   0.96967011     0.0023323615   0.00082213196  20.654203      19.214243      1.4399601     -1.3259385      18429.288    
    331000   1.0519101      0.0023323615   0.00084216843  20.641157      19.07907       1.5620865     -1.4033605      18285.247    
    332000   0.96652148     0.0023323615  -0.00073241876  20.458796      19.023511      1.4352844     -1.3843594      18341.855    
    333000   1.0204852      0.0023323615  -0.0037665553   20.646086      19.130666      1.5154205     -1.411057       18223.934    
    334000   1.0557255      0.0023323615   0.0031039436   20.582026      19.014274      1.5677524     -1.3865799      18284.429    
    335000   0.94896274     0.0023323615  -0.0061751867   20.49497       19.08576       1.4092097     -1.4261096      18288.389    
    336000   0.91217818     0.0023323615   0.0044184407   20.354003      18.999418      1.3545846     -1.4993786      18300.884    
    337000   0.90059496     0.0023323615   0.0014631583   20.596841      19.259457      1.3373835     -1.3674313      18328.403    
    338000   0.98816585     0.0023323615  -0.0023977499   20.541566      19.07414       1.4674263     -1.4416895      18342.25     
    339000   0.93243325     0.0023323615  -0.0043009031   20.523692      19.139029      1.3846634     -1.3132331      18304.421    
    340000   1.0131733      0.0023323615   0.00082986189  20.493025      18.988462      1.5045624     -1.3709789      18424.665    
    341000   0.86738812     0.0023323615  -0.0029991847   20.81576       19.527688      1.2880714     -1.0974206      18445.878    
    342000   0.92713878     0.0023323615  -0.0017893568   20.420035      19.043234      1.3768011     -1.2972852      18403.477    
    343000   0.91874705     0.0023323615   0.0007369838   20.499292      19.134953      1.3643394     -1.3875502      18433.587    
    344000   0.98815597     0.0023323615   0.0011906765   20.550284      19.082873      1.4674116     -1.3721989      18375.623    
    345000   0.95135072     0.0023323615  -0.0030875039   20.363619      18.950863      1.4127558     -1.5021987      18431.453    
    346000   1.300113       0.0023323615   0.0039099146   20.953231      19.022563      1.9306678     -1.421876       18231.204    
    347000   1.0349484      0.0023323615   0.0015127505   20.754978      19.218079      1.5368984     -1.3672577      18376.415    
    348000   0.99755084     0.0023323615  -0.0028610529   20.569103      19.08774       1.481363      -1.4103651      18378.915    
    349000   1.0446164      0.0023323615  -0.00074796607  20.89794       19.346684      1.5512553     -1.2337911      18456.162    
    350000   0.86945534     0.0023323615  -0.0036567546   20.71583       19.424689      1.2911412     -1.2845869      19047.262    
    351000   0.91891466     0.0023323615   0.0012789415   20.537512      19.172924      1.3645883     -1.3638942      19090.081    
    352000   0.93464373     0.0023323615   0.00014076111  20.650529      19.262583      1.3879459     -1.1753853      18715.648    
    353000   1.1654933      0.0023323615   0.0018934734   20.70592       18.975162      1.7307576     -1.4728203      18549.195    
    354000   0.88182891     0.0023323615  -0.0013434504   20.55967       19.250154      1.3095159     -1.3552296      18338.711    
    355000   0.88611673     0.0023323615   0.0010381504   20.287278      18.971394      1.3158833     -1.4288175      18355.901    
    356000   1.0419352      0.0023323615   0.00025905788  20.724169      19.176895      1.5472738     -1.3713015      18310.543    
    357000   1.0340158      0.0023323615  -0.00066127508  20.568677      19.033164      1.5355134     -1.4980866      18407.645    
    358000   0.91319272     0.0023323615   0.00051054742  20.33268       18.976589      1.3560912     -1.4656594      18366.362    
    359000   0.93242478     0.0023323615  -0.0017061317   20.637254      19.252603      1.3846508     -1.1390302      18470.824    
    360000   0.97474865     0.0023323615   0.0029543411   20.683667      19.236165      1.4475017     -1.3152248      18417.451    
    361000   0.84133921     0.0023323615  -0.00037186975  20.354409      19.10502       1.2493887     -1.4513601      18235.28     
    362000   0.91551433     0.0023323615  -5.309542e-05   20.473527      19.113988      1.3595388     -1.4502798      18023.05     
    363000   0.97298826     0.0023323615   0.0020758293   20.647351      19.202464      1.4448876     -1.4493399      18307.839    
    364000   0.85128179     0.0023323615  -0.001659314    20.357658      19.093505      1.2641535     -1.4292193      18411.876    
    365000   0.92629571     0.0023323615  -0.00012766635  20.60933       19.23378       1.3755491     -1.1890397      18638.199    
    366000   0.98295466     0.0023323615   0.0012285691   20.682268      19.22258       1.4596877     -1.3524501      18721.89     
    367000   0.96470956     0.0023323615   0.0014100622   20.284319      18.851725      1.4325937     -1.5771638      18352.908    
    368000   1.0058413      0.0023323615  -0.0009837729   20.56711       19.073435      1.4936743     -1.4871663      18501.69     
    369000   1.1012892      0.0023323615  -0.0033025935   20.891829      19.256415      1.6354145     -1.3244284      18488.927    
    370000   1.0525157      0.0023323615   0.00030421119  20.70477       19.141784      1.5629858     -1.4693076      18494.446    
    371000   0.89936412     0.0023323615   0.00059548873  20.272323      18.936768      1.3355557     -1.5137445      18370.094    
    372000   1.1406127      0.0023323615   0.00070606229  20.502067      18.808257      1.6938099     -1.6725879      18176.814    
    373000   1.0650345      0.0023323615  -0.00084329897  20.732983      19.151407      1.5815762     -1.4196887      18189.156    
    374000   0.91605416     0.0023323615  -0.0013208865   20.476518      19.116178      1.3603404     -1.3778352      18275.982    
    375000   0.97029059     0.0023323615  -0.003676729    20.67756       19.236678      1.4408815     -1.2770778      18373.008    
    376000   1.0452803      0.0023323615  -0.00049524199  20.74779       19.195549      1.5522413     -1.3311156      18411.271    
    377000   1.0343645      0.0023323615  -0.0011060882   20.797276      19.261244      1.5360313     -1.2406876      18489.475    
    378000   1.1145662      0.0023323615  -0.00075573395  20.971145      19.316014      1.6551308     -1.1967943      18430.592    
    379000   1.158179       0.0023323615  -0.00086296757  21.031244      19.311349      1.7198959     -1.2092069      18334.083    
    380000   1.1248407      0.0023323615   0.0061725193   20.958832      19.288443      1.6703885     -1.3312582      18583.894    
    381000   1.033282       0.0023323615   0.0018510491   20.913912      19.379488      1.5344238     -1.1648711      18438.497    
    382000   1.1591216      0.0023323615   0.0036793886   21.18877       19.467475      1.7212956     -1.0319759      18602.562    
    383000   0.95231093     0.0023323615   0.0002380724   20.732186      19.318004      1.4141817     -1.377327       18686.262    
    384000   0.95075744     0.0023323615  -0.0032022919   20.772503      19.360628      1.4118748     -1.1468644      18866.804    
    385000   0.85769232     0.0023323615   0.0013792525   20.551569      19.277896      1.2736731     -1.3053342      18651.424    
    386000   1.0687543      0.0023323615   0.0033478079   20.70182       19.11472       1.5871002     -1.3578807      18497.205    
    387000   1.0156051      0.0023323615   0.007931142    20.801008      19.292834      1.5081736     -1.3151497      18515.78     
    388000   1.0529019      0.0023323615   0.0026840885   20.943922      19.380363      1.5635594     -1.1287149      18529.219    
    389000   0.95125162     0.0023323615   0.003194981    20.702009      19.2894        1.4126087     -1.3398997      18510.014    
    390000   0.8776625      0.0023323615  -0.00055619227  20.39527       19.091941      1.3033288     -1.3282041      18315.004    
    391000   1.038354       0.0023323615   0.00054012695  20.794693      19.252737      1.5419557     -1.239189       18460.965    
    392000   1.1156085      0.0023323615  -0.0013618298   20.932934      19.276255      1.6566787     -1.3240302      18496.743    
    393000   0.97714587     0.0023323615  -0.001480956    20.564231      19.113169      1.4510616     -1.4143768      18428.312    
    394000   0.90014506     0.0023323615   0.004740313    20.603888      19.267173      1.3367154     -1.2944191      18502.331    
    395000   0.88985884     0.0023323615  -0.0035793511   20.407923      19.086483      1.3214404     -1.3592737      18513.946    
    396000   1.0440237      0.0023323615  -0.002796827    20.773808      19.223433      1.5503752     -1.2550889      18621.536    
    397000   1.0716286      0.0023323615   0.0028416288   20.618145      19.026776      1.5913685     -1.4959558      18280.782    
    398000   0.86690646     0.0023323615   0.0064578542   20.366445      19.079088      1.2873561     -1.4821587      18427.958    
    399000   1.0586369      0.0023323615  -0.00095487848  20.84963       19.277554      1.5720758     -1.3004116      18342.701    
    400000   0.98688255     0.0023323615  -0.00083155306  20.762747      19.297227      1.4655206     -1.210514       18422.574    
    401000   0.90289131     0.0023323615  -0.0051485277   20.585287      19.244493      1.3407936     -1.2669591      18606.256    
    402000   0.92340278     0.0023323615   0.00076747401  20.57235       19.201096      1.3712531     -1.1636862      19078.339    
    403000   1.0696353      0.0023323615  -0.0032617451   20.851147      19.262738      1.5884084     -1.1876632      18565.98     
    404000   0.99266462     0.0023323615  -0.00036287321  20.82797       19.353863      1.474107      -1.1929944      18390.558    
    405000   0.91370024     0.0023323615  -0.0032254778   20.578237      19.221392      1.3568449     -1.4008662      18252.12     
    406000   0.98962083     0.0023323615   0.0017113801   20.695746      19.226159      1.4695869     -1.3180078      18281.268    
    407000   0.99837022     0.0023323615  -0.0022193307   20.570241      19.087661      1.4825798     -1.4835979      18306.435    
    408000   0.99920056     0.0023323615   0.0056638152   20.417719      18.933907      1.4838128     -1.5799555      18278.867    
    409000   1.1059815      0.0023323615  -0.0013949207   20.88548       19.243098      1.6423825     -1.3024371      18294.289    
    410000   1.0391897      0.0023323615  -0.00068407887  20.697117      19.15392       1.5431968     -1.3870542      18513.77     
[...]
    861000   0.87947777     0.0023323615   0.002764973    20.393025      19.087001      1.3060245     -1.381906       18363.412    
    862000   0.88127857     0.0023323615  -0.0030564971   20.704462      19.395763      1.3086987     -1.1654776      18339.625    
    863000   1.008247       0.0023323615   0.00043515006  20.921267      19.42402       1.4972468     -1.1233048      18494.032    
    864000   1.1392045      0.0023323615   0.00013604104  21.19654       19.504822      1.6917187     -1.1994203      18472.855    
    865000   0.93485463     0.0023323615   0.0022252463   20.380322      18.992063      1.3882591     -1.4741819      18375.891    
    866000   0.86595176     0.0023323615   0.0029235115   20.275995      18.990057      1.2859384     -1.5099988      18235.834    
    867000   1.1587237      0.0023323615   0.0047841981   20.748462      19.027757      1.7207047     -1.4947787      18204.028    
    868000   0.94259597     0.0023323615  -0.0021113899   20.495132      19.095377      1.399755      -1.4729499      18334.315    
    869000   1.0357351      0.0023323615  -0.0028060334   20.693696      19.15563       1.5380666     -1.3394995      18233.658    
    870000   0.99945128     0.0023323615   1.8247571e-05  20.383107      18.898922      1.4841852     -1.5299243      18185.574    
    871000   1.0113492      0.0023323615  -0.0027148598   20.795641      19.293788      1.5018536     -1.1838724      18224.949    
    872000   0.97059253     0.0023323615  -0.0026470865   20.69782       19.256491      1.4413299     -1.3086724      18388.257    
    873000   1.0331724      0.0023323615   0.00090407645  20.919161      19.3849        1.534261      -1.0988477      18495.927    
    874000   1.0891781      0.0023323615  -0.0052453186   20.7102        19.09277       1.6174295     -1.3950243      18459.65     
    875000   1.0789836      0.0023323615  -0.00074356919  20.901528      19.299237      1.6022906     -1.2550916      18318.416    
    876000   0.9636472      0.0023323615   0.0012815328   20.409344      18.978328      1.4310161     -1.5064186      18340.689    
    877000   0.93365991     0.0023323615  -0.007002381    20.521491      19.135006      1.386485      -1.3432524      18363.787    
    878000   1.0930614      0.0023323615  -0.0029798451   20.949337      19.326141      1.6231961     -1.2719584      18368.599    
    879000   1.0533979      0.0023323615  -0.0029234859   21.044388      19.480093      1.5642959     -1.1952836      18545.783    
    880000   1.0259162      0.0023323615   0.0046500376   20.885014      19.361529      1.5234856     -1.1430268      18536.366    
    881000   1.011079       0.0023323615  -0.0010341727   20.857105      19.355653      1.5014523     -1.2377097      18371.679    
    882000   0.97350748     0.0023323615  -0.0040126951   20.652691      19.207033      1.4456586     -1.3415774      18271.894    
    883000   1.0962415      0.0023323615   0.00012099084  20.832192      19.204273      1.6279186     -1.2638927      18421.85     
    884000   1.0366176      0.0023323615  -0.00015710053  20.634203      19.094826      1.5393771     -1.4703584      18496.842    
    885000   0.93169154     0.0023323615  -0.0039116692   20.557925      19.174363      1.3835619     -1.3382063      18299.206    
    886000   0.91693707     0.0023323615  -0.0037242214   20.423088      19.061436      1.3616516     -1.3447752      18446.645    
    887000   1.1307001      0.0023323615   0.0011502473   20.728057      19.048967      1.6790896     -1.4023628      18395.279    
    888000   1.0042978      0.0023323615   0.0014276944   20.650962      19.15958       1.4913822     -1.4524325      18261.651    
    889000   1.0311176      0.0023323615   0.000519278    20.735946      19.204736      1.5312096     -1.3091881      18339.631    
    890000   1.0131755      0.0023323615   0.0011866277   20.463545      18.95898       1.5045657     -1.4696684      18304.878    
    891000   0.92936552     0.0023323615   0.0030687843   20.476446      19.096338      1.3801078     -1.358039       18359.642    
    892000   0.99290987     0.0023323615  -0.00032430878  20.886644      19.412173      1.4744712     -1.1569497      18380.763    
    893000   1.0981836      0.0023323615   0.0014173098   20.707202      19.076399      1.6308027     -1.4285201      18453.61     
    894000   0.90443066     0.0023323615   0.0023002226   20.332166      18.989086      1.3430795     -1.4625128      18282.396    
    895000   1.1462379      0.0023323615  -0.0023579513   20.835448      19.133284      1.7021632     -1.2422762      18435.371    
    896000   1.038167       0.0023323615   0.0029527758   20.701853      19.160175      1.5416781     -1.2506782      18460.07     
    897000   0.82680067     0.0023323615  -0.00030117536  20.435036      19.207237      1.227799      -1.2976309      18586.015    
    898000   0.95261241     0.0023323615   0.0037371168   20.557139      19.142509      1.4146294     -1.3929231      18521.187    
    899000   1.1257604      0.0023323615   0.0025619529   20.932824      19.26107       1.6717542     -1.3006764      18646.692    
    900000   0.87782416     0.0023323615  -0.00041254493  20.524003      19.220434      1.3035689     -1.3329477      18629.423    
    901000   1.0094256      0.0023323615  -0.0033562137   20.659779      19.160782      1.498997      -1.3491133      18441.386    
    902000   0.94963399     0.0023323615   0.0040567847   20.412898      19.002692      1.4102065     -1.5551433      18335.188    
    903000   0.88412859     0.0023323615  -0.0010365447   20.454781      19.14185       1.3129309     -1.3901223      18310.757    
    904000   0.88477239     0.0023323615  -0.00034282211  20.345248      19.031361      1.313887      -1.3659941      18300.37     
    905000   0.8597702      0.0023323615   0.00085263802  20.259324      18.982566      1.2767587     -1.4732985      18300.233    
    906000   0.83729601     0.0023323615  -0.00077068392  20.388839      19.145455      1.2433846     -1.4167948      18297.938    
    907000   0.90608057     0.0023323615  -0.0013451566   20.573713      19.228184      1.3455296     -1.36515        18268.065    
    908000   0.95220412     0.0023323615  -0.0028406465   20.541519      19.127496      1.4140231     -1.3868713      18225.428    
    909000   1.1253431      0.0023323615   0.00052349589  20.895521      19.224387      1.6711345     -1.3845259      18332.813    
    910000   0.85965538     0.0023323615   0.0032969706   20.478382      19.201794      1.2765882     -1.3230228      18316.846    
    911000   0.98171642     0.0023323615   0.0031705361   20.772497      19.314648      1.4578489     -1.1780069      18576.661    
    912000   1.0173775      0.0023323615  -0.0019826482   21.013197      19.502391      1.5108055     -1.0987619      18560.543    
    913000   1.0207631      0.0023323615   0.0025486271   20.263061      18.747228      1.5158333     -1.667363       18406.077    
    914000   0.93158188     0.0023323615  -0.0060838597   20.397044      19.013645      1.3833991     -1.5463455      18070.86     
    915000   1.0472533      0.0023323615  -0.0012310739   20.658507      19.103335      1.5551712     -1.5051132      18100.987    
    916000   1.0578261      0.0023323615   0.0046271084   20.60703       19.036158      1.5708717     -1.3685381      18242.689    
    917000   0.95600809     0.0023323615  -0.0008970945   20.343968      18.924296      1.419672      -1.473039       18390.961    
    918000   0.95212911     0.0023323615  -0.0013792015   20.763509      19.349598      1.4139117     -1.1445057      18583.953    
    919000   1.0050528      0.0023323615   0.003150142    20.688324      19.19582       1.4925035     -1.260148       18502.877    
    920000   1.0835658      0.0023323615   0.002038336    21.003126      19.394031      1.6090952     -1.2273926      18416.523    
    921000   1.0436822      0.0023323615   0.0024328585   20.882414      19.332546      1.5498681     -1.3717424      18341.114    
    922000   1.0410216      0.0023323615   0.00063604509  20.634746      19.088829      1.545917      -1.4892059      18332.638    
    923000   1.0063985      0.0023323615   0.0025860842   20.467702      18.973201      1.4945017     -1.4442374      18359.075    
    924000   0.97232619     0.0023323615  -0.00013712807  20.699115      19.25521       1.4439044     -1.2819576      18467.848    
    925000   0.90502931     0.0023323615   0.00088054727  20.390273      19.046304      1.3439685     -1.5583985      18310.512    
    926000   1.1266732      0.0023323615   0.0021082283   20.607045      18.933936      1.6731097     -1.4818348      18414.08     
    927000   1.0820301      0.0023323615  -0.0051607025   20.652933      19.046118      1.6068147     -1.428607       18201.707    
    928000   1.117209       0.0023323615   0.0066176226   20.9042        19.245145      1.6590553     -1.3297038      18134.374    
    929000   1.0662907      0.0023323615   0.0028488433   20.835601      19.252159      1.5834417     -1.2289395      18755.617    
    930000   0.9950272      0.0023323615   0.0032855334   20.687734      19.210118      1.4776154     -1.2182738      19023.813    
    931000   0.87023707     0.0023323615  -0.0033127592   20.266624      18.974322      1.2923021     -1.5715752      18387.39     
    932000   1.1207713      0.0023323615   4.2179575e-05  20.860209      19.195863      1.6643454     -1.3745583      18273.982    
    933000   0.77362331     0.0023323615   0.0021367719   20.181754      19.032923      1.1488306     -1.4324711      18276.036    
    934000   1.007156       0.0023323615  -5.2914908e-05  20.580242      19.084615      1.4956266     -1.4538224      18369.208    
    935000   1.047278       0.0023323615   0.0018706977   20.866162      19.310954      1.5552078     -1.2458611      18379.545    
    936000   1.0601123      0.0023323615  -0.0014381612   20.692293      19.118026      1.5742668     -1.3905422      18455.711    
    937000   1.0002076      0.0023323615   0.0027657188   20.456504      18.971195      1.4853082     -1.4401288      18320.612    
    938000   1.0661188      0.0023323615   0.0047255923   20.441445      18.858259      1.5831864     -1.6398278      18624.003    
    939000   1.0107554      0.0023323615  -0.002865619    20.535856      19.034884      1.5009717     -1.5184522      18550.791    
    940000   0.96881842     0.0023323615  -0.003792646    20.99366       19.554965      1.4386954     -0.96342296     18554.364    
    941000   0.88249168     0.0023323615   0.0023971434   20.692401      19.381901      1.3105001     -1.1921366      18562.469    
    942000   0.98030972     0.0023323615   0.0022266642   20.563486      19.107726      1.4557599     -1.4129361      18472.653    
    943000   0.95211385     0.0023323615   0.00093948123  20.245103      18.831214      1.4138891     -1.5956518      18114.097    
    944000   0.94682004     0.0023323615  -0.00011897521  20.498284      19.092256      1.4060278     -1.4701849      18370.692    
    945000   1.0682251      0.0023323615  -0.0023311266   20.92092       19.334606      1.5863143     -1.2444201      18358.217    
    946000   1.054451       0.0023323615  -0.00044387447  20.615463      19.049604      1.5658597     -1.4973         18352.843    
    947000   1.0031866      0.0023323615   0.0011712752   20.556975      19.067243      1.4897321     -1.4690381      18417.366    
    948000   0.92766051     0.0023323615  -0.0035192887   20.863627      19.486051      1.3775759     -1.1729012      18496.516    
    949000   1.001586       0.0023323615   4.7796126e-05  20.355709      18.868354      1.4873553     -1.6608754      18387.007    
    950000   1.0094006      0.0023323615   0.00030423918  20.663404      19.164444      1.4989599     -1.453268       17831.942    
    951000   0.94458153     0.0023323615  -0.0031162824   20.545291      19.142587      1.4027036     -1.386847       18252.394    
    952000   0.93848363     0.0023323615  -0.00054608978  20.115104      18.721456      1.3936482     -1.7542469      18336.019    
    953000   0.98310453     0.0023323615   0.0013970331   20.470475      19.010565      1.4599102     -1.3865223      18411.512    
    954000   0.98133328     0.0023323615   0.00033704644  20.377751      18.920472      1.4572799     -1.498983       18339.015    
    955000   1.0718228      0.0023323615  -0.0014605532   20.751287      19.15963       1.5916569     -1.4641018      18127.366    
    956000   0.89016769     0.0023323615  -0.0030977885   20.409888      19.087989      1.321899      -1.4210312      18236.607    
    957000   1.1215074      0.0023323615  -0.0020148654   20.708795      19.043357      1.6654384     -1.4453823      18206.552    
    958000   0.93235573     0.0023323615  -0.0007685315   20.615964      19.231416      1.3845483     -1.3612731      18172.26     
    959000   1.0128512      0.0023323615   0.0034970014   20.657536      19.153452      1.5040841     -1.3674303      18324.009    
    960000   0.93305147     0.0023323615  -0.00062606295  20.486         19.100419      1.3855814     -1.4988912      18240.072    
    961000   0.90357313     0.0023323615  -0.0040969719   20.41891       19.077104      1.3418061     -1.4790688      18372.099    
    962000   1.1599871      0.0023323615   0.004364663    20.756094      19.033513      1.7225809     -1.5149705      18429.087    
    963000   1.0355767      0.0023323615   0.00058457145  20.575313      19.037481      1.5378314     -1.356634       18289.707    
    964000   1.0434973      0.0023323615  -0.0014814491   20.835928      19.286334      1.5495935     -1.2779848      18373.732    
    965000   1.062433       0.0023323615  -0.0010999931   20.941178      19.363465      1.577713      -1.1346721      18425.784    
    966000   1.0040003      0.0023323615   0.001558479    20.845221      19.354281      1.4909404     -1.1543728      18308.101    
    967000   1.0466331      0.0023323615   0.00026353426  20.849183      19.294933      1.5542502     -1.2391151      18525.79     
    968000   0.96262841     0.0023323615  -0.0015777332   20.846852      19.417349      1.4295032     -1.1893633      18404.617    
    969000   1.0462943      0.0023323615  -0.0025380517   20.950934      19.397187      1.5537471     -1.1520104      18397.435    
    970000   1.0940968      0.0023323615  -0.0002085911   20.744378      19.119644      1.6247338     -1.4428247      18374.991    
    971000   0.87248994     0.0023323615  -0.0076980684   20.640291      19.344643      1.2956476     -1.2791229      18349.915    
    972000   0.97957283     0.0023323615   0.0041684468   20.604705      19.150039      1.4546656     -1.3178566      18349.277    
    973000   1.0219152      0.0023323615  -0.0016152452   20.619968      19.102424      1.5175441     -1.3702692      18527.479    
    974000   0.99517759     0.0023323615  -0.0028774974   20.691961      19.214122      1.4778387     -1.3210002      18394.215    
    975000   0.98434884     0.0023323615  -0.0014215203   20.287903      18.826145      1.461758      -1.6683232      18215.018    
    976000   0.98142453     0.0023323615   0.0025478802   20.806452      19.349037      1.4574154     -1.2204623      18380.019    
    977000   1.0256337      0.0023323615  -0.0018073889   20.450326      18.92726       1.523066      -1.5128961      18519.991    
    978000   1.0023244      0.0023323615   0.0018214829   20.473237      18.984786      1.4884517     -1.5241371      18263.045    
    979000   1.0574244      0.0023323615   0.0047390097   20.833488      19.263213      1.5702752     -1.2841099      18235.47     
    980000   0.98729088     0.0023323615   0.00070522374  20.940313      19.474186      1.466127      -1.1044441      18289.73     
    981000   0.83334707     0.0023323615  -0.003001314    20.53282       19.2953        1.2375204     -1.2746164      18725.202    
    982000   1.1171854      0.0023323615   0.0010794149   20.699108      19.040088      1.6590203     -1.4870831      18578.594    
    983000   0.99996888     0.0023323615  -0.0022000272   20.869199      19.384245      1.4849538     -1.182893       18397.415    
    984000   0.9430068      0.0023323615  -0.00053298804  20.512917      19.112552      1.4003651     -1.3983431      18349.783    
    985000   0.94151484     0.0023323615  -0.0011433466   20.326932      18.928783      1.3981495     -1.4577187      18416.873    
    986000   0.87165646     0.0023323615  -0.0024313895   20.56032       19.26591       1.2944098     -1.3234219      18343.072    
    987000   1.0440103      0.0023323615  -0.0032037874   20.858814      19.308459      1.5503553     -1.326181       18371.453    
    988000   1.0593837      0.0023323615   0.0033106705   20.603826      19.030641      1.5731848     -1.4730917      18450.662    
    989000   0.97652795     0.0023323615  -0.0036423185   20.766213      19.316069      1.450144      -1.2120985      18412.514    
    990000   1.0570963      0.0023323615  -0.00089171409  20.747832      19.178044      1.569788      -1.3285483      18348.771    
    991000   1.0478367      0.0023323615  -0.0010080618   20.584821      19.028784      1.5560375     -1.4890612      18409.977    
    992000   0.84281819     0.0023323615  -0.0030832297   20.434087      19.182502      1.251585      -1.2359091      18338.226    
    993000   1.0158026      0.0023323615   0.0047406364   20.668613      19.160146      1.5084669     -1.3464723      18478.792    
    994000   1.1031605      0.0023323615   0.0017373119   20.863028      19.224835      1.6381933     -1.3309729      18191.891    
    995000   1.0108015      0.0023323615   0.0028756506   20.606226      19.105186      1.5010402     -1.408708       18341.872    
    996000   0.9488475      0.0023323615   0.0055892211   20.678854      19.269815      1.4090385     -1.2063895      18380.015    
    997000   0.99500364     0.0023323615  -0.0034195179   20.564235      19.086655      1.4775804     -1.4635802      18226.726    
    998000   1.029001       0.0023323615   0.0051082018   20.670294      19.142227      1.5280666     -1.4868261      18333.81     
    999000   1.131947       0.0023323615  -0.00028465059  20.74117       19.060229      1.6809413     -1.4431466      18276.488    
   1000000   0.94298175     0.0023323615  -0.0015608857   20.52494       19.124612      1.4003279     -1.4065333      18273.811    
Loop time of 54.1767 on 1 procs for 1000000 steps with 100 atoms

Performance: 7973908.103 tau/day, 18458.121 timesteps/s
99.4% CPU use with 1 MPI tasks x 1 OpenMP threads

MPI task timing breakdown:
Section |  min time  |  avg time  |  max time  |%varavg| %total
---------------------------------------------------------------
Pair    | 44.888     | 44.888     | 44.888     |   0.0 | 82.85
Bond    | 1.28       | 1.28       | 1.28       |   0.0 |  2.36
Neigh   | 3.8298     | 3.8298     | 3.8298     |   0.0 |  7.07
Comm    | 1.3854     | 1.3854     | 1.3854     |   0.0 |  2.56
Output  | 0.24924    | 0.24924    | 0.24924    |   0.0 |  0.46
Modify  | 2.1892     | 2.1892     | 2.1892     |   0.0 |  4.04
Other   |            | 0.3553     |            |       |  0.66

Nlocal:            100 ave         100 max         100 min
Histogram: 1 0 0 0 0 0 0 0 0 0
Nghost:            330 ave         330 max         330 min
Histogram: 1 0 0 0 0 0 0 0 0 0
Neighs:           4851 ave        4851 max        4851 min
Histogram: 1 0 0 0 0 0 0 0 0 0

Total # of neighbors = 4851
Ave neighs/atom = 48.51
Ave special neighs/atom = 1.98
Neighbor list builds = 97888
Dangerous builds = 79989

write_data      ${outputfile_assembled} nofix nocoeff
write_data      7_assembled.data nofix nocoeff
System init for write_data ...
Generated 0 of 6 mixed pair_coeff terms from geometric mixing rule

Total wall time: 0:00:55
