LAMMPS (23 Jun 2022 - Update 1)
OMP_NUM_THREADS environment is not set. Defaulting to 1 thread. (src/comm.cpp:98)
  using 1 OpenMP thread(s) per MPI task


variable        runtime equal 1000000
variable		subsample_rate equal 1000

variable		outputfile_created string '3_created.data'
variable		outputfile_relaxed string '5_relaxed.data'
variable		outputfile_selfasb string '6_a_self_assemble.lammpstrj'
variable		outputfile_trajlin string '6_b_trajlin.data'
variable		outputfile_assembled string '7_assembled.data'

units           lj
atom_style      full
dimension       3
boundary        p p p
timestep        0.005

read_data       ${outputfile_created}
read_data       3_created.data
Reading data file ...
  orthogonal box = (0 0 0) to (35 35 35)
  1 by 1 by 1 MPI processor grid
  reading atoms ...
  100 atoms
  reading velocities ...
  100 velocities
  scanning bonds ...
  1 = max bonds/atom
  reading bonds ...
  99 bonds
Finding 1-2 1-3 1-4 neighbors ...
  special bond factors lj:    0        0        0       
  special bond factors coul:  0        0        0       
     2 = max # of 1-2 neighbors
     2 = max # of 1-3 neighbors
     4 = max # of 1-4 neighbors
     6 = max # of special neighbors
  special bonds CPU = 0.000 seconds
  read_data CPU = 0.005 seconds

bond_style      fene
bond_coeff      * 30.0 1.5 1.0 1.0
special_bonds   fene
Finding 1-2 1-3 1-4 neighbors ...
  special bond factors lj:    0        1        1       
  special bond factors coul:  0        1        1       
     2 = max # of 1-2 neighbors
     6 = max # of special neighbors
  special bonds CPU = 0.000 seconds

variable        Temp equal 1.0
variable        velSeed equal 926458

velocity        all create ${Temp} ${velSeed}
velocity        all create 1 ${velSeed}
velocity        all create 1 926458

### Output
thermo_style    custom step temp density press etotal pe ke epair spcpu
thermo          1000

###########################################################################
# Soft relaxation (to remove overlaps of particles)
######################################################################

pair_style      soft 1.0
pair_coeff      * * 0.0
variable        prefactor equal ramp(0,300)
fix             rampSoft all adapt 1 pair soft a * * v_prefactor

minimize        0.0 1.0e-8 1000 100000
WARNING: Using 'neigh_modify every 1 delay 0 check yes' setting during minimization (src/min.cpp:187)
Generated 0 of 6 mixed pair_coeff terms from geometric mixing rule
Neighbor list info ...
  update every 1 steps, delay 0 steps, check yes
  max neighbors/atom: 2000, page size: 100000
  master list distance cutoff = 1.3
  ghost atom cutoff = 1.3
  binsize = 0.65, bins = 54 54 54
  1 neighbor lists, perpetual/occasional/extra = 1 0 0
  (1) pair soft, perpetual
      attributes: half, newton on
      pair build: half/bin/newton
      stencil: half/bin/3d
      bin: standard
WARNING: Communication cutoff 1.3 is shorter than a bond length based estimate of 1.7550000000000001. This may lead to errors. (src/comm.cpp:727)
Per MPI rank memory allocation (min/avg/max) = 8.346 | 8.346 | 8.346 Mbytes
   Step          Temp         Density         Press          TotEng         PotEng         KinEng         E_pair         S/CPU     
         0   1              0.0023323615  -0.0039617958   21.524174      20.039174      1.485          0              0            
       362   1              0.0023323615   0.0023090379   21.485548      20.000548      1.485          0              70884.809    
Loop time of 0.00510921 on 1 procs for 362 steps with 100 atoms

98.0% CPU use with 1 MPI tasks x 1 OpenMP threads

Minimization stats:
  Stopping criterion = force tolerance
  Energy initial, next-to-last, final = 
      20.0391741078675   20.0005480767337   20.0005480767337
  Force two-norm initial, final = 11.878422 7.9509778e-09
  Force max component initial, final = 6.6117807 1.3572772e-09
  Final line search alpha, max atom move = 1 1.3572772e-09
  Iterations, force evaluations = 362 738

MPI task timing breakdown:
Section |  min time  |  avg time  |  max time  |%varavg| %total
---------------------------------------------------------------
Pair    | 0.00023229 | 0.00023229 | 0.00023229 |   0.0 |  4.55
Bond    | 0.0023323  | 0.0023323  | 0.0023323  |   0.0 | 45.65
Neigh   | 0.0013901  | 0.0013901  | 0.0013901  |   0.0 | 27.21
Comm    | 0.0001826  | 0.0001826  | 0.0001826  |   0.0 |  3.57
Output  | 0          | 0          | 0          |   0.0 |  0.00
Modify  | 0          | 0          | 0          |   0.0 |  0.00
Other   |            | 0.0009719  |            |       | 19.02

Nlocal:            100 ave         100 max         100 min
Histogram: 1 0 0 0 0 0 0 0 0 0
Nghost:             20 ave          20 max          20 min
Histogram: 1 0 0 0 0 0 0 0 0 0
Neighs:              0 ave           0 max           0 min
Histogram: 1 0 0 0 0 0 0 0 0 0

Total # of neighbors = 0
Ave neighs/atom = 0
Ave special neighs/atom = 1.98
Neighbor list builds = 17
Dangerous builds = 0

fix             nvtSoft all nvt temp ${Temp} ${Temp} 0.5
fix             nvtSoft all nvt temp 1 ${Temp} 0.5
fix             nvtSoft all nvt temp 1 1 0.5
run             100000
Generated 0 of 6 mixed pair_coeff terms from geometric mixing rule
WARNING: Communication cutoff 1.3 is shorter than a bond length based estimate of 1.7550000000000001. This may lead to errors. (src/comm.cpp:727)
Per MPI rank memory allocation (min/avg/max) = 7.221 | 7.221 | 7.221 Mbytes
   Step          Temp         Density         Press          TotEng         PotEng         KinEng         E_pair         S/CPU     
       362   1              0.0023323615   0.0023090379   21.485548      20.000548      1.485          0              0            
      1000   0.90989032     0.0023323615  -0.0021940042   21.776974      20.425787      1.3511871      0.00036425437  79071.752    
      2000   0.86546688     0.0023323615   0.0034714157   21.677128      20.39191       1.2852183      0.0025814786   77099.611    
      3000   0.98199538     0.0023323615   0.0028144228   21.866132      20.407869      1.4582631      0.0011756043   71172.761    
      4000   1.004495       0.0023323615  -0.0014058211   21.945624      20.453949      1.4916751      0.011986179    72358.963    
      5000   1.1222705      0.0023323615   0.0044495116   21.986385      20.319813      1.6665718      0.0050317639   74718.318    
      6000   1.0538243      0.0023323615   0.0023957538   21.985713      20.420784      1.564929       0.012100514    75563.184    
      7000   1.0210598      0.0023323615  -0.00038820026  21.904665      20.388391      1.5162738      0              77108.725    
      8000   0.94819751     0.0023323615   0.0024943091   21.747889      20.339816      1.4080733      0              77308.501    
      9000   0.92364502     0.0023323615   0.0020053029   21.724166      20.352554      1.3716129      1.7780894e-05  76429.18     
     10000   0.86685188     0.0023323615   0.00078277366  21.644879      20.357604      1.287275       0.0098636418   76823.85     
     11000   1.0057103      0.0023323615   0.00010113276  21.8558        20.362321      1.4934798      0.020705341    76435.156    
     12000   0.97901664     0.0023323615  -0.0026996968   21.871206      20.417366      1.4538397      0.0052928539   76057.675    
     13000   0.97718436     0.0023323615  -6.1641422e-06  21.963706      20.512587      1.4511188      0.025022446    76093.743    
     14000   1.0530014      0.0023323615  -0.0009993112   21.947994      20.384287      1.5637071      0.0020860456   75166.663    
     15000   0.99094527     0.0023323615   0.0011068478   21.895146      20.423592      1.4715537      0.0015091113   76418.947    
     16000   0.91285091     0.0023323615  -0.00025424173  21.87524       20.519657      1.3555836      0.0047853639   75920.563    
     17000   0.82806978     0.0023323615  -0.00054698156  21.701984      20.472301      1.2296836      0              75881.435    
     18000   1.043278       0.0023323615  -6.6143919e-05  22.003299      20.454031      1.5492679      0.0034319132   77051.462    
     19000   1.0879249      0.0023323615  -0.0017804642   21.998985      20.383416      1.6155685      0.015376175    75461.948    
     20000   1.1144506      0.0023323615   0.0025198298   22.190904      20.535944      1.6549592      0              76528.806    
     21000   1.0427751      0.0023323615   0.0011345349   22.099492      20.550971      1.548521       0.00040047813  76668.949    
     22000   1.0586695      0.0023323615   0.0017882747   22.05673       20.484606      1.5721242      0              76729.647    
     23000   1.0058426      0.0023323615  -0.0055245362   21.954628      20.460951      1.4936763      0.0027619031   75953.328    
     24000   0.98273442     0.0023323615   0.0015147357   21.862067      20.402707      1.4593606      0              76222.859    
     25000   0.95835343     0.0023323615   0.0017808774   21.937761      20.514606      1.4231548      0.00020839942  75941.302    
     26000   0.93993778     0.0023323615  -0.0021777292   21.884849      20.489042      1.3958076      0.0088889834   76404.379    
     27000   0.9308188      0.0023323615  -0.00011239942  21.842252      20.459986      1.3822659      0.021612409    75697.104    
     28000   1.0149581      0.0023323615   0.0041996387   21.906846      20.399633      1.5072129      0.0064059022   75877.053    
     29000   0.92841138     0.0023323615  -2.5398808e-05  21.987185      20.608494      1.3786909      0.0046112484   75992.993    
     30000   1.021043       0.0023323615   0.001589158    22.097958      20.581709      1.5162489      0.016799508    73665.65     
     31000   1.0465985      0.0023323615  -0.0021744286   22.037917      20.483718      1.5541987      0.0057879149   76540.48     
     32000   0.98907108     0.0023323615  -0.0015558606   22.044089      20.575318      1.4687705      0.009448173    76032.069    
     33000   1.0918536      0.0023323615  -0.0025643847   22.039275      20.417873      1.6214025      0              75201.953    
     34000   0.99801543     0.0023323615   0.0016279766   21.932339      20.450286      1.4820529      0.017384617    77688.427    
     35000   1.0352271      0.0023323615  -0.0052971711   22.076004      20.538692      1.5373122      0.00010473809  76128.854    
     36000   1.1141579      0.0023323615  -0.00093279925  22.222491      20.567966      1.6545245      0.00033678641  76962.109    
     37000   1.0369415      0.0023323615   0.00013065175  22.217841      20.677983      1.5398581      0.013788831    76430.704    
     38000   1.0515596      0.0023323615   0.0021717558   22.070766      20.5092        1.561566       0.0067894678   76892.562    
     39000   1.0238495      0.0023323615   0.00026414509  22.040141      20.519725      1.5204165      0.00044464649  75938.413    
     40000   1.0749111      0.0023323615  -0.0026849368   22.039327      20.443084      1.596243       0.012651334    74333.034    
     41000   0.99070886     0.0023323615  -0.0030385564   22.03241       20.561207      1.4712027      0.00092855646  77516.477    
     42000   0.95315224     0.0023323615   0.0019788197   21.965263      20.549832      1.4154311      0.020233689    75791.946    
     43000   1.0644183      0.0023323615  -0.0011168725   22.287172      20.706511      1.5806611      0.039694129    76012.558    
     44000   1.0253747      0.0023323615  -0.006676522    22.066233      20.543552      1.5226814      0              75131.87     
     45000   0.94179556     0.0023323615  -0.0047206018   21.970644      20.572077      1.3985664      0.019869988    75411.153    
     46000   1.0083495      0.0023323615  -0.0017646918   21.972114      20.474715      1.497399       0.00026040605  75636.586    
     47000   0.98767959     0.0023323615  -0.00080218158  22.091674      20.62497       1.4667042      0.024266258    75560.495    
     48000   1.1473449      0.0023323615  -0.0025885687   22.080512      20.376705      1.7038072      0.00065962995  75770.141    
     49000   1.0679312      0.0023323615   0.0017688272   21.970482      20.384604      1.5858779      0.014142422    77017.216    
     50000   0.9581935      0.0023323615   0.0014398836   21.955202      20.532284      1.4229173      0.0055011948   76451.723    
     51000   1.0215759      0.0023323615  -0.00093292688  21.934681      20.41764       1.5170402      0              76205.288    
     52000   0.98079591     0.0023323615   0.0040701936   21.977374      20.520892      1.4564819      0.0020862422   76909.979    
     53000   1.0090927      0.0023323615   0.0013324753   22.095438      20.596935      1.4985027      0              75817.857    
     54000   0.97519627     0.0023323615   0.0013260734   22.070151      20.621984      1.4481665      0.026885444    76981.103    
     55000   1.1805087      0.0023323615  -0.001586238    22.424088      20.671033      1.7530554      0.024690954    76377.542    
     56000   0.98387121     0.0023323615   0.0037155145   22.104425      20.643376      1.4610487      0.01435493     75981.196    
     57000   1.0723812      0.0023323615  -0.0037916262   22.122726      20.53024       1.592486       0.013635549    76563.318    
     58000   1.0152349      0.0023323615   0.00021908047  22.082827      20.575203      1.5076238      0.00077375639  76345.004    
     59000   1.1424502      0.0023323615  -0.0052108657   22.30072       20.604182      1.6965385      0.013308184    77473.94     
     60000   1.0359703      0.0023323615  -0.00097887545  22.188218      20.649802      1.538416       0.00011346294  75742.14     
     61000   1.1646839      0.0023323615  -0.002085017    22.239945      20.51039       1.7295556      0.012918477    78069.12     
     62000   1.101836       0.0023323615   0.0010338878   22.171386      20.53516       1.6362265      0.001396566    76795.124    
     63000   0.96616435     0.0023323615   0.00097550571  21.903821      20.469067      1.4347541      0.013027663    78044.766    
     64000   1.0068907      0.0023323615  -0.0020278726   22.061652      20.566419      1.4952327      0.013750276    76489.628    
     65000   0.98723233     0.0023323615   0.0022441476   22.031073      20.565033      1.46604        0.0066686189   77060.024    
     66000   1.0273881      0.0023323615  -0.0003515278   22.183579      20.657908      1.5256713      0              75128.596    
     67000   0.96528212     0.0023323615  -0.00014822656  21.9396        20.506156      1.4334439      0.010365557    77170.962    
     68000   1.069702       0.0023323615   9.4754668e-05  22.081119      20.492611      1.5885075      0.00049153926  74427.594    
     69000   1.1229502      0.0023323615   0.0011504079   22.200329      20.532748      1.6675811      0.0068454249   77019.179    
     70000   1.0062775      0.0023323615  -0.00085311964  22.094021      20.599699      1.4943221      0.013222355    75210.844    
     71000   1.0906935      0.0023323615   0.00015260357  22.145362      20.525682      1.6196798      0.018338513    76452.541    
     72000   1.010401       0.0023323615  -6.0487182e-06  22.154105      20.653659      1.5004455      0.0013793953   75266.541    
     73000   1.1177599      0.0023323615  -0.0034084797   22.254435      20.594562      1.6598735      0.00011231735  78026.522    
     74000   0.9768019      0.0023323615   0.00016143893  22.07312       20.622569      1.4505508      0.0084515956   75996.47     
     75000   1.1360996      0.0023323615   0.002159116    22.161595      20.474487      1.6871079      0.0089909162   76693.274    
     76000   0.97379329     0.0023323615  -0.00068458621  21.988928      20.542845      1.446083       0              75985.815    
     77000   0.94876793     0.0023323615  -0.0016073976   21.923496      20.514575      1.4089204      0.017745108    75964.654    
     78000   0.83947996     0.0023323615  -0.00062768559  21.726727      20.480099      1.2466277      0.0054510099   76462.502    
     79000   1.0090614      0.0023323615  -0.00080262643  22.068192      20.569736      1.4984562      0.00023011166  76678.837    
     80000   1.1217643      0.0023323615  -0.0038177864   22.367902      20.702082      1.66582        0.032902439    76297.735    
     81000   1.0240158      0.0023323615   0.00023547123  22.031597      20.510933      1.5206635      0.0068767308   75941.879    
     82000   1.003236       0.0023323615  -0.0022802982   21.894199      20.404393      1.4898055      0.019136282    75091.965    
     83000   1.0554159      0.0023323615   0.004011718    22.104562      20.537269      1.5672927      0.0080869707   74618.502    
     84000   0.83527346     0.0023323615  -0.0034122221   21.874648      20.634267      1.2403811      0.0030083664   76077.441    
     85000   1.036002       0.0023323615   0.0013573923   21.962923      20.42446       1.5384629      0.015709144    76701.057    
     86000   0.9432002      0.0023323615  -0.0032183248   21.913588      20.512936      1.4006523      0.013730309    76674.187    
     87000   0.95566008     0.0023323615  -0.00049614223  21.91653       20.497375      1.4191552      0.0035862035   75607.14     
     88000   0.93373351     0.0023323615  -0.00097093893  21.870485      20.483891      1.3865943      0.0018212145   75504.419    
     89000   0.9684944      0.0023323615  -0.00047342045  21.973429      20.535215      1.4382142      0.00087524744  75597.121    
     90000   0.98293324     0.0023323615  -0.0032204602   22.050919      20.591263      1.4596559      0.015353933    76970.414    
     91000   1.0832827      0.0023323615   0.0048517083   22.11977       20.511095      1.6086749      0.0052867789   78032.44     
     92000   0.85899662     0.0023323615  -0.0013049519   21.765697      20.490087      1.27561        0.0024124001   76757.859    
     93000   0.96176266     0.0023323615  -4.4223672e-05  21.874222      20.446004      1.4282176      0.0045653365   77398.722    
     94000   0.96019503     0.0023323615   0.00024459347  21.944954      20.519064      1.4258896      3.8053462e-05  76953.864    
     95000   0.94702149     0.0023323615  -0.0033658915   21.86315       20.456823      1.4063269      0              77514.609    
     96000   0.91119348     0.0023323615  -0.0013197298   21.825018      20.471896      1.3531223      0.00043282989  76020.601    
     97000   1.0016687      0.0023323615  -0.0019514304   22.013024      20.525546      1.487478       0.0048369955   75613.155    
     98000   1.02143        0.0023323615  -0.0057874974   22.177965      20.661142      1.5168235      0              74547.834    
     99000   1.032786       0.0023323615   0.0018228259   21.975336      20.441649      1.5336871      7.1595851e-05  77664.794    
    100000   1.0594928      0.0023323615   0.0036169719   22.011024      20.437677      1.5733468      0.00032948157  75966.328    
    100362   1.1904942      0.0023323615  -0.00089755607  22.316856      20.548972      1.7678839      0.00063845255  75689.322    
Loop time of 1.31296 on 1 procs for 100000 steps with 100 atoms

Performance: 32902669.505 tau/day, 76163.587 timesteps/s
99.0% CPU use with 1 MPI tasks x 1 OpenMP threads

MPI task timing breakdown:
Section |  min time  |  avg time  |  max time  |%varavg| %total
---------------------------------------------------------------
Pair    | 0.050643   | 0.050643   | 0.050643   |   0.0 |  3.86
Bond    | 0.12719    | 0.12719    | 0.12719    |   0.0 |  9.69
Neigh   | 0.80301    | 0.80301    | 0.80301    |   0.0 | 61.16
Comm    | 0.055292   | 0.055292   | 0.055292   |   0.0 |  4.21
Output  | 0.0010227  | 0.0010227  | 0.0010227  |   0.0 |  0.08
Modify  | 0.24286    | 0.24286    | 0.24286    |   0.0 | 18.50
Other   |            | 0.03295    |            |       |  2.51

Nlocal:            100 ave         100 max         100 min
Histogram: 1 0 0 0 0 0 0 0 0 0
Nghost:             60 ave          60 max          60 min
Histogram: 1 0 0 0 0 0 0 0 0 0
Neighs:             36 ave          36 max          36 min
Histogram: 1 0 0 0 0 0 0 0 0 0

Total # of neighbors = 36
Ave neighs/atom = 0.36
Ave special neighs/atom = 1.98
Neighbor list builds = 9821
Dangerous builds = 8265
unfix           nvtSoft
unfix           rampSoft
reset_timestep  0

write_data      ${outputfile_relaxed}
write_data      5_relaxed.data
System init for write_data ...
Generated 0 of 6 mixed pair_coeff terms from geometric mixing rule
WARNING: Communication cutoff 1.3 is shorter than a bond length based estimate of 1.7550000000000001. This may lead to errors. (src/comm.cpp:727)
WARNING: Not all mixed pair coeffs generated from mixing. Use write_data with 'pair ij' option to store all pair coeffs. (src/write_data.cpp:309)

###########################################################################
# Full LJ with Coulomb
######################################################################

# Cutoffs and parameters:
# - Values: Marcel Verkade's Bachelor Thesis
# - Mapping to atom groups: Patrick Onck's paper
# - 1: aliphatic, 2: aromatic, 3: anion, 4: cation
# pair_style	lj/cut/coul/cut <lj_cut_global> <coul_cut_global>
# pair_coeff	<type_1>  <type_2>  <eps>  <sigma>  <r_cut_lj>  <r_cut_coul>

# Problem: Onck's model is much more complex, and Marcel has no sigma reported
# Using sigma=1 randomly

variable		glob_ljeps equal 1.0
variable		glob_ljsig 	equal 1.0
variable		glob_coulcut equal 10.0
variable		att_ljcut equal 2.50
variable		rep_ljcut equal 1.12

pair_style		lj/cut/coul/cut 						${att_ljcut} 	${glob_coulcut}
pair_style		lj/cut/coul/cut 						2.5 	${glob_coulcut}
pair_style		lj/cut/coul/cut 						2.5 	10
pair_coeff		1 1 	${glob_ljeps} 	${glob_ljsig}	${att_ljcut} 	${glob_coulcut}
pair_coeff		1 1 	1 	${glob_ljsig}	${att_ljcut} 	${glob_coulcut}
pair_coeff		1 1 	1 	1	${att_ljcut} 	${glob_coulcut}
pair_coeff		1 1 	1 	1	2.5 	${glob_coulcut}
pair_coeff		1 1 	1 	1	2.5 	10
pair_coeff		1 2 	${glob_ljeps} 	${glob_ljsig}	${att_ljcut} 	${glob_coulcut}
pair_coeff		1 2 	1 	${glob_ljsig}	${att_ljcut} 	${glob_coulcut}
pair_coeff		1 2 	1 	1	${att_ljcut} 	${glob_coulcut}
pair_coeff		1 2 	1 	1	2.5 	${glob_coulcut}
pair_coeff		1 2 	1 	1	2.5 	10
pair_coeff		1 3 	${glob_ljeps} 	${glob_ljsig}	${rep_ljcut} 	${glob_coulcut}
pair_coeff		1 3 	1 	${glob_ljsig}	${rep_ljcut} 	${glob_coulcut}
pair_coeff		1 3 	1 	1	${rep_ljcut} 	${glob_coulcut}
pair_coeff		1 3 	1 	1	1.12 	${glob_coulcut}
pair_coeff		1 3 	1 	1	1.12 	10
pair_coeff		1 4 	${glob_ljeps} 	${glob_ljsig}	${rep_ljcut} 	${glob_coulcut}
pair_coeff		1 4 	1 	${glob_ljsig}	${rep_ljcut} 	${glob_coulcut}
pair_coeff		1 4 	1 	1	${rep_ljcut} 	${glob_coulcut}
pair_coeff		1 4 	1 	1	1.12 	${glob_coulcut}
pair_coeff		1 4 	1 	1	1.12 	10
pair_coeff		2 2 	${glob_ljeps} 	${glob_ljsig}	${att_ljcut} 	${glob_coulcut}
pair_coeff		2 2 	1 	${glob_ljsig}	${att_ljcut} 	${glob_coulcut}
pair_coeff		2 2 	1 	1	${att_ljcut} 	${glob_coulcut}
pair_coeff		2 2 	1 	1	2.5 	${glob_coulcut}
pair_coeff		2 2 	1 	1	2.5 	10
pair_coeff		2 3 	${glob_ljeps} 	${glob_ljsig}	${rep_ljcut} 	${glob_coulcut}
pair_coeff		2 3 	1 	${glob_ljsig}	${rep_ljcut} 	${glob_coulcut}
pair_coeff		2 3 	1 	1	${rep_ljcut} 	${glob_coulcut}
pair_coeff		2 3 	1 	1	1.12 	${glob_coulcut}
pair_coeff		2 3 	1 	1	1.12 	10
pair_coeff		2 4 	${glob_ljeps} 	${glob_ljsig}	${att_ljcut} 	${glob_coulcut}
pair_coeff		2 4 	1 	${glob_ljsig}	${att_ljcut} 	${glob_coulcut}
pair_coeff		2 4 	1 	1	${att_ljcut} 	${glob_coulcut}
pair_coeff		2 4 	1 	1	2.5 	${glob_coulcut}
pair_coeff		2 4 	1 	1	2.5 	10
pair_coeff		3 3 	${glob_ljeps} 	${glob_ljsig}	${rep_ljcut} 	${glob_coulcut}
pair_coeff		3 3 	1 	${glob_ljsig}	${rep_ljcut} 	${glob_coulcut}
pair_coeff		3 3 	1 	1	${rep_ljcut} 	${glob_coulcut}
pair_coeff		3 3 	1 	1	1.12 	${glob_coulcut}
pair_coeff		3 3 	1 	1	1.12 	10
pair_coeff		3 4 	${glob_ljeps} 	${glob_ljsig}	${att_ljcut} 	${glob_coulcut}
pair_coeff		3 4 	1 	${glob_ljsig}	${att_ljcut} 	${glob_coulcut}
pair_coeff		3 4 	1 	1	${att_ljcut} 	${glob_coulcut}
pair_coeff		3 4 	1 	1	2.5 	${glob_coulcut}
pair_coeff		3 4 	1 	1	2.5 	10
pair_coeff		4 4 	${glob_ljeps} 	${glob_ljsig}	${rep_ljcut} 	${glob_coulcut}
pair_coeff		4 4 	1 	${glob_ljsig}	${rep_ljcut} 	${glob_coulcut}
pair_coeff		4 4 	1 	1	${rep_ljcut} 	${glob_coulcut}
pair_coeff		4 4 	1 	1	1.12 	${glob_coulcut}
pair_coeff		4 4 	1 	1	1.12 	10


fix             noDriftRot 	all momentum 10 linear 1 1 1 angular
fix             nvt1 		all nvt temp ${Temp} ${Temp} 0.5
fix             nvt1 		all nvt temp 1 ${Temp} 0.5
fix             nvt1 		all nvt temp 1 1 0.5

# dump          assemble 	all custom 1000 				${outputfile_selfasb} id type xu yu zu vx vy vz
dump            lindump 	all custom ${subsample_rate} 	${outputfile_trajlin} id type xu yu zu vx vy vz
dump            lindump 	all custom 1000 	${outputfile_trajlin} id type xu yu zu vx vy vz
dump            lindump 	all custom 1000 	6_b_trajlin.data id type xu yu zu vx vy vz

run             ${runtime}
run             1000000
Generated 0 of 6 mixed pair_coeff terms from geometric mixing rule
Neighbor list info ...
  update every 1 steps, delay 10 steps, check yes
  max neighbors/atom: 2000, page size: 100000
  master list distance cutoff = 10.3
  ghost atom cutoff = 10.3
  binsize = 5.15, bins = 7 7 7
  1 neighbor lists, perpetual/occasional/extra = 1 0 0
  (1) pair lj/cut/coul/cut, perpetual
      attributes: half, newton on
      pair build: half/bin/newton
      stencil: half/bin/3d
      bin: standard
Per MPI rank memory allocation (min/avg/max) = 7.712 | 7.712 | 7.712 Mbytes
   Step          Temp         Density         Press          TotEng         PotEng         KinEng         E_pair         S/CPU     
         0   1.1904942      0.0023323615  -0.0017050005   21.89777       20.129886      1.7678839     -0.41844819     0            
      1000   1.0091579      0.0023323615  -0.00014280529  21.066021      19.567422      1.4985994     -0.81903738     33278.996    
      2000   1.0167163      0.0023323615   0.00040508386  20.972003      19.462179      1.5098238     -1.0688048      29844.271    
      3000   1.0939988      0.0023323615  -0.002368056    20.706183      19.081594      1.6245882     -1.4151537      24880.043    
      4000   0.99777373     0.0023323615   0.0011813684   20.064112      18.582418      1.481694      -1.6896099      19274.81     
      5000   0.99550414     0.0023323615   0.0029586559   20.11814       18.639817      1.4783237     -1.9080285      17974.02     
      6000   0.96488861     0.0023323615   0.0053577473   19.865367      18.432508      1.4328596     -2.0835491      18111.948    
      7000   1.0732467      0.0023323615  -0.0011652361   20.203107      18.609335      1.5937714     -1.7272555      18275.952    
      8000   1.0128995      0.0023323615   0.001060743    20.118172      18.614017      1.5041557     -1.82931        18344.672    
      9000   0.98566335     0.0023323615  -0.00053635388  20.193569      18.729859      1.4637101     -1.7217488      18118.951    
     10000   0.85583683     0.0023323615   0.00034270423  19.890296      18.619379      1.2709177     -1.8528424      18271.83     
     11000   1.0319837      0.0023323615   0.0037127699   19.940654      18.408159      1.5324958     -2.0297461      18447.315    
     12000   0.97660347     0.0023323615  -0.0020175381   19.941931      18.491675      1.4502562     -1.9977252      18207.185    
     13000   1.0874229      0.0023323615  -0.0023859115   20.126551      18.511728      1.614823      -2.0112813      18100.154    
     14000   0.91318448     0.0023323615   0.0039771156   20.124107      18.768028      1.356079      -1.8822427      18247.024    
     15000   1.0809313      0.0023323615  -0.00010821376  20.116405      18.511222      1.605183      -2.169139       18184.397    
     16000   0.84458805     0.0023323615  -0.0025227281   19.984975      18.730761      1.2542133     -1.7663304      18273.338    
     17000   1.0165049      0.0023323615   0.004870421    19.96918       18.45967       1.5095098     -2.1032121      18191.476    
     18000   1.0154051      0.0023323615   0.0012027069   19.815665      18.307789      1.5078766     -2.2037065      18218.581    
     19000   1.0579569      0.0023323615   0.0055519634   20.430492      18.859426      1.571066      -1.86357        18272.779    
     20000   1.0663883      0.0023323615  -0.00064873828  20.354333      18.770746      1.5835866     -1.6729586      18234.214    
     21000   1.0659974      0.0023323615  -3.5413396e-05  20.06284       18.479834      1.5830062     -1.9964853      18268.118    
     22000   1.0222102      0.0023323615  -0.0035475308   20.00928       18.491297      1.5179822     -1.9944385      18223.634    
     23000   1.0517104      0.0023323615   0.0017173607   19.956123      18.394333      1.56179       -1.9391386      18215.685    
     24000   0.97792453     0.0023323615   0.00034721197  20.046123      18.593905      1.4522179     -1.9057012      18228.959    
     25000   1.0493747      0.0023323615   0.00043809694  20.355654      18.797333      1.5583214     -1.8275817      18248.105    
     26000   0.96598305     0.0023323615  -9.6376626e-05  20.171718      18.737233      1.4344848     -1.8539242      18315.679    
     27000   0.88421962     0.0023323615  -0.00029706727  19.951502      18.638436      1.3130661     -1.9834878      18159.918    
     28000   0.96792705     0.0023323615   0.00013574875  19.642051      18.204679      1.4373717     -2.2777278      18126.266    
     29000   1.03758        0.0023323615  -0.0034270034   19.71463       18.173824      1.5408064     -2.3767498      18121.415    
     30000   0.95031254     0.0023323615  -0.0031420813   19.786707      18.375493      1.4112141     -2.1440434      18018.274    
     31000   0.90217704     0.0023323615  -0.0025121761   19.788596      18.448863      1.3397329     -1.9545742      18200.24     
     32000   0.89847256     0.0023323615   0.0022573379   19.962756      18.628524      1.3342318     -1.9875417      18146.747    
     33000   1.1459955      0.0023323615  -0.00099594525  19.996628      18.294825      1.7018033     -2.1613404      18112.372    
     34000   1.0267054      0.0023323615   0.001465938    20.293397      18.768739      1.5246575     -1.8329418      18203.659    
     35000   0.97362759     0.0023323615   0.0011942703   19.822556      18.376719      1.445837      -2.0940865      18237.599    
     36000   0.96044474     0.0023323615  -0.00034447816  19.987274      18.561014      1.4262604     -1.9214642      18185.116    
     37000   1.0370567      0.0023323615   0.0025287701   20.287505      18.747476      1.5400292     -1.845938       18360.377    
     38000   0.83538723     0.0023323615   0.0030247571   19.889419      18.648869      1.24055       -1.948055       18129.855    
     39000   0.88835315     0.0023323615  -0.001894557    19.847716      18.528511      1.3192044     -1.9941595      18084.589    
     40000   1.1623038      0.0023323615  -0.002359448    20.141505      18.415484      1.7260212     -2.0771029      18172.055    
     41000   1.0339056      0.0023323615  -0.00046356888  20.033206      18.497856      1.5353498     -2.0359341      18066.098    
     42000   1.0133256      0.0023323615   0.0072990347   20.272214      18.767426      1.5047886     -1.9037575      18125.153    
     43000   1.1562838      0.0023323615   0.0059032679   20.314278      18.597197      1.7170814     -1.8585277      18049.205    
     44000   1.2624586      0.0023323615   0.00086600349  20.548161      18.67341       1.874751      -1.7697411      18173.322    
     45000   1.0019831      0.0023323615  -0.00097645757  20.015125      18.52718       1.4879449     -1.980486       18077.449    
     46000   0.94954668     0.0023323615   0.0007864469   19.935551      18.525474      1.4100768     -1.8650901      18056.516    
     47000   0.91062016     0.0023323615  -0.0014629416   19.845528      18.493257      1.3522709     -1.937035       18062.211    
     48000   1.063611       0.0023323615   0.0019855051   20.169389      18.589927      1.5794623     -1.8747051      17928.279    
     49000   0.99429292     0.0023323615  -0.0063337871   20.040608      18.564083      1.476525      -1.9846353      18101.069    
     50000   1.0755238      0.0023323615   0.00088535133  20.152554      18.555401      1.5971528     -1.9156485      18096.225    
     51000   1.0002348      0.0023323615   0.0027032676   19.862333      18.376984      1.4853486     -2.0708065      17986.344    
     52000   0.91317494     0.0023323615   0.0038668498   19.982969      18.626904      1.3560648     -1.8125403      18055.337    
     53000   0.96520022     0.0023323615   0.0030986672   19.827366      18.394044      1.4333223     -2.0650611      17981.743    
     54000   1.0676436      0.0023323615   0.0016764243   20.445523      18.860073      1.5854507     -1.769075       18244.63     
     55000   1.1063007      0.0023323615  -0.0023400567   20.156908      18.514051      1.6428566     -2.0381317      17973.246    
     56000   0.88072031     0.0023323615   0.00075339178  19.894044      18.586175      1.3078697     -2.0202985      17969.713    
     57000   1.1031259      0.0023323615   0.00096675362  20.568406      18.930264      1.638142      -1.6742314      17888.259    
     58000   1.1633257      0.0023323615   0.0013559332   20.418342      18.690803      1.7275386     -1.9884594      17970.48     
     59000   0.97087495     0.0023323615   0.0023035285   19.964589      18.52284       1.4417493     -1.9922541      17916.6      
     60000   1.0761431      0.0023323615  -0.0020504332   20.093689      18.495617      1.5980725     -2.0112223      18050.266    
     61000   1.0989204      0.0023323615   0.0023980149   20.373874      18.741977      1.6318967     -1.9013887      18056.532    
     62000   0.88045089     0.0023323615  -0.0038595325   19.785432      18.477963      1.3074696     -2.0332424      18074.597    
     63000   1.0226066      0.0023323615   0.0021591244   19.93656       18.417989      1.5185708     -2.1653919      17991.317    
     64000   1.021254       0.0023323615   0.0015667338   19.732917      18.216355      1.5165622     -2.2317294      17984.085    
     65000   0.96320392     0.0023323615  -0.00057602803  20.010331      18.579973      1.4303578     -1.8921062      17905.932    
     66000   1.0318137      0.0023323615  -0.0014008558   19.895638      18.363394      1.5322433     -2.1943631      17890.934    
     67000   1.0321971      0.0023323615  -0.0043422836   20.044856      18.512044      1.5328126     -2.0376356      17877.978    
     68000   0.92489702     0.0023323615   0.0021566655   19.991069      18.617597      1.3734721     -1.8165606      17899.856    
     69000   0.97174802     0.0023323615  -0.0011361246   19.91692       18.473874      1.4430458     -2.1147977      18030.552    
     70000   0.8919653      0.0023323615  -0.0015379137   19.712494      18.387925      1.3245685     -2.0981514      17979.327    
     71000   1.0839081      0.0023323615  -0.0044410002   19.863236      18.253632      1.6096036     -2.1993451      18133.181    
     72000   1.0128557      0.0023323615  -0.0025641771   20.242821      18.73873       1.5040907     -1.681626       18135.481    
     73000   1.0244885      0.0023323615  -0.0022702675   20.169513      18.648148      1.5213655     -1.8253279      18298.202    
     74000   0.89174505     0.0023323615  -0.0023081753   19.604545      18.280303      1.3242414     -2.1410561      18131.758    
     75000   1.0944749      0.0023323615  -0.0025458102   20.112608      18.487313      1.6252952     -2.0953762      17994.022    
     76000   1.15625        0.0023323615  -0.00020724144  20.347437      18.630405      1.7170313     -1.9082798      18113.717    
     77000   1.1044455      0.0023323615  -0.0002467594   20.347503      18.707401      1.6401016     -1.8250964      18006.202    
     78000   0.93726964     0.0023323615   0.00078175774  19.871431      18.479586      1.3918454     -2.0494219      17835.945    
     79000   1.1055926      0.0023323615  -0.0043769609   20.314486      18.672681      1.641805      -1.8042721      17987.91     
     80000   1.1097364      0.0023323615  -0.00054365052  20.147624      18.499666      1.6479586     -2.0243493      18056.379    
     81000   0.97844278     0.0023323615   0.00023195111  19.726897      18.27391       1.4529875     -2.1978152      17888.102    
     82000   0.99602364     0.0023323615   0.0012728075   19.90021       18.421115      1.4790951     -2.1203149      18017.533    
     83000   1.0294577      0.0023323615  -0.00028723822  19.882571      18.353826      1.5287447     -2.1467114      18010.994    
     84000   1.0705231      0.0023323615  -0.0010567874   20.275392      18.685665      1.5897268     -1.8554362      17916.108    
     85000   0.79870616     0.0023323615  -0.00097517859  19.890351      18.704272      1.1860786     -1.9362208      18035.556    
     86000   0.97207804     0.0023323615   0.0027096875   20.159346      18.71581       1.4435359     -1.7603811      17996.06     
     87000   1.019943       0.0023323615  -0.0030068718   20.065437      18.550822      1.5146154     -1.9529481      17945.924    
     88000   1.0521738      0.0023323615   0.0027744685   19.960852      18.398374      1.5624781     -2.0703287      18089.774    
     89000   0.95819496     0.0023323615  -0.0012698211   20.073365      18.650446      1.4229195     -1.9231065      17981.924    
     90000   1.0859945      0.0023323615   0.003151697    20.126391      18.513689      1.6127018     -2.0099023      17776.816    
     91000   1.0783858      0.0023323615  -0.00064512055  19.826604      18.225201      1.6014029     -2.0998562      17926.224    
     92000   0.9216996      0.0023323615  -0.004899841    20.246394      18.87767       1.3687239     -1.7393924      17984.776    
     93000   0.99020943     0.0023323615   0.0023392377   19.93826       18.467799      1.470461      -2.0000407      18037.306    
     94000   0.97379649     0.0023323615   0.00059819871  19.889554      18.443467      1.4460878     -2.1979232      18066.013    
     95000   0.93546278     0.0023323615  -0.00098802662  19.900395      18.511233      1.3891622     -1.9961278      17946.492    
     96000   1.028704       0.0023323615   0.00028378893  19.868747      18.341122      1.5276254     -2.0500447      17969.761    
     97000   1.0024295      0.0023323615   0.0019585859   19.784369      18.295762      1.4886078     -2.1017256      17941.756    
     98000   0.92953231     0.0023323615  -0.00070225107  19.919058      18.538702      1.3803555     -1.9113021      18020.529    
     99000   1.1243325      0.0023323615   0.00067004604  19.918686      18.249052      1.6696338     -2.1245779      17969.095    
    100000   0.90575391     0.0023323615  -0.0024245917   19.976974      18.631929      1.3450446     -1.9073702      18008.947    
    101000   1.0087133      0.0023323615   0.0016426593   19.992267      18.494328      1.4979393     -2.0726932      17961.137    
    102000   0.93095647     0.0023323615   0.0025825332   20.140509      18.758038      1.3824704     -1.9129657      18286.737    
    103000   1.0339309      0.0023323615   0.00053156532  19.920933      18.385546      1.5353874     -2.183571       18290.413    
    104000   0.77405751     0.0023323615   0.0031697564   19.736051      18.586575      1.1494754     -1.9557378      18012.906    
    105000   1.0348146      0.0023323615   0.0049521606   20.191893      18.655193      1.5366997     -1.9763153      18171.37     
    106000   1.059708       0.0023323615   0.0022081198   20.153546      18.579879      1.5736663     -1.8367027      18008.47     
    107000   1.0617054      0.0023323615   0.0012042443   20.053581      18.476948      1.5766325     -2.0717359      18089.141    
    108000   1.0558778      0.0023323615  -0.0016330878   20.299952      18.731974      1.5679785     -1.7275301      18196.003    
    109000   1.0389595      0.0023323615   0.00171813     20.297726      18.754871      1.5428548     -1.8813162      18271.799    
    110000   0.89016494     0.0023323615  -0.00037313885  20.054121      18.732226      1.3218949     -1.9041645      18282.422    
    111000   0.94546617     0.0023323615  -0.0011764875   20.198868      18.79485       1.4040173     -1.8407984      18135.755    
    112000   1.0006375      0.0023323615   0.0032709984   19.802986      18.317039      1.4859467     -2.0746523      18028.933    
    113000   0.91038898     0.0023323615  -0.0023352067   19.826081      18.474154      1.3519276     -2.0583394      18001.928    
    114000   0.95780427     0.0023323615   0.0031696033   20.291085      18.868745      1.4223393     -1.6925168      17946.775    
    115000   0.97773896     0.0023323615  -0.0021107132   19.823705      18.371763      1.4519424     -2.1325368      17994.775    
    116000   0.93391829     0.0023323615   0.0028297215   20.091894      18.705025      1.3868687     -1.7938416      18084.782    
    117000   1.060746       0.0023323615  -0.0014365515   20.07918       18.503972      1.5752078     -2.0959094      18096.74     
    118000   1.052125       0.0023323615  -0.0041066142   20.201464      18.639059      1.5624056     -2.0310732      17920.866    
    119000   0.85348452     0.0023323615  -0.0011660718   19.656774      18.38935       1.2674245     -2.0598959      17834.763    
    120000   1.013212       0.0023323615  -0.00054439323  20.021952      18.517332      1.5046199     -2.0057025      17995.58     
    121000   0.93993605     0.0023323615   0.0049376741   20.148046      18.752241      1.395805      -1.7968383      18148.13     
    122000   0.8368436      0.0023323615   0.00068664917  19.670136      18.427424      1.2427128     -2.0433393      18096.354    
    123000   1.0139175      0.0023323615  -0.0057495561   20.169594      18.663926      1.5056675     -1.882061       18088.696    
    124000   0.90163209     0.0023323615   0.0014103154   19.716605      18.377681      1.3389237     -2.0326172      18116.945    
    125000   0.94870735     0.0023323615   0.001039843    19.737022      18.328191      1.4088304     -2.1073539      18033.054    
    126000   0.88751575     0.0023323615   0.0026781331   19.913663      18.595702      1.3179609     -1.9805723      18129.331    
    127000   0.95274428     0.0023323615   0.0032075696   19.805331      18.390506      1.4148253     -2.1100418      18090.204    
    128000   0.88779965     0.0023323615   6.4860949e-05  19.749272      18.43089       1.3183825     -2.0505815      18142.934    
    129000   0.86845852     0.0023323615  -0.00044023289  19.786923      18.497262      1.2896609     -2.0071521      18072.651    
    130000   1.0142055      0.0023323615  -0.00078998917  20.120592      18.614497      1.5060951     -1.8460263      17867.711    
    131000   1.1345341      0.0023323615   0.0028912142   19.971932      18.287149      1.6847831     -2.1408668      18036.309    
    132000   0.994725       0.0023323615  -0.0023116856   20.034156      18.556989      1.4771666     -2.0743441      18068.1      
    133000   0.98418383     0.0023323615  -0.001275106    20.135083      18.67357       1.461513      -1.8286675      18137.303    
    134000   0.91145744     0.0023323615   0.0011570696   19.810223      18.456709      1.3535143     -2.1401783      18083.501    
    135000   0.99163882     0.0023323615   0.0069123003   19.753466      18.280882      1.4725837     -2.2062776      17966.566    
    136000   0.9887313      0.0023323615  -0.00035817471  19.717348      18.249082      1.468266      -2.2882822      17938.051    
    137000   0.95628742     0.0023323615  -0.0024434452   19.854404      18.434317      1.4200868     -2.0806274      17992.186    
    138000   0.91022392     0.0023323615  -0.0013039257   19.63349       18.281807      1.3516825     -2.1874849      18003.458    
    139000   0.84874534     0.0023323615  -0.0014613289   19.750298      18.489911      1.2603868     -1.9904129      17959.143    
    140000   0.92298399     0.0023323615  -0.0011589974   19.669977      18.299345      1.3706312     -2.2516767      18097.157    
    141000   0.91717761     0.0023323615   0.00237584     20.077975      18.715966      1.3620088     -1.8216452      18178.651    
    142000   1.0220674      0.0023323615  -0.0036537454   19.667505      18.149735      1.5177702     -2.2887272      18094.798    
    143000   0.93401092     0.0023323615  -0.0064451128   20.041425      18.654419      1.3870062     -1.943785       18104.845    
    144000   1.1209046      0.0023323615   1.8420767e-05  20.109204      18.444661      1.6645434     -1.9970651      18141.543    
    145000   1.104208       0.0023323615  -0.00022967239  19.935003      18.295254      1.6397489     -2.2290114      18039.288    
    146000   1.0562035      0.0023323615  -0.0022210502   19.898122      18.32966       1.5684622     -2.1273353      17977.085    
    147000   1.0278186      0.0023323615  -0.0014825377   19.956943      18.430632      1.5263106     -1.9370582      18028.839    
    148000   0.96812934     0.0023323615   0.0005145849   20.318936      18.881264      1.4376721     -1.6779019      18035.067    
    149000   1.0399141      0.0023323615   0.0046541101   20.189181      18.644909      1.5442724     -1.8969273      18129.966    
    150000   1.1083147      0.0023323615   0.00091856649  20.377816      18.731969      1.6458473     -1.857736       18069.653    
    151000   0.98315385     0.0023323615   0.0051475004   19.767018      18.307034      1.4599835     -2.1941459      18007.664    
    152000   1.0333822      0.0023323615  -0.0013794687   20.038627      18.504055      1.5345726     -1.9232555      18032.174    
    153000   0.98801636     0.0023323615   0.00053673192  19.890875      18.423671      1.4672043     -2.2005671      18152.041    
    154000   1.0430424      0.0023323615   0.00069410536  20.12923       18.580312      1.5489179     -2.0705598      18133.744    
    155000   1.1165111      0.0023323615  -0.0012267879   20.402719      18.7447        1.658019      -1.770298       17954.22     
    156000   0.92767159     0.0023323615  -0.0021601113   19.803075      18.425482      1.3775923     -2.0245888      18062.11     
    157000   0.97316726     0.0023323615  -0.001544722    20.012512      18.567359      1.4451534     -1.9317312      18063.875    
    158000   1.0271095      0.0023323615  -0.00014040201  19.954179      18.428921      1.5252576     -1.9643435      18146.929    
    159000   1.0104502      0.0023323615   0.0042456915   19.911424      18.410906      1.5005185     -2.1102676      18109.94     
    160000   0.90827244     0.0023323615   0.00026834222  19.804342      18.455558      1.3487846     -1.9842653      18069.228    
    161000   0.91104017     0.0023323615  -0.0050569639   20.109459      18.756565      1.3528947     -1.8454931      18002.097    
    162000   1.0908538      0.0023323615  -0.0033016698   20.062683      18.442765      1.6199179     -2.0848905      18127.329    
    163000   1.0153888      0.0023323615   0.00035295145  20.017227      18.509375      1.5078524     -2.071087       18126.322    
    164000   0.89065135     0.0023323615  -0.00061455392  19.710449      18.387831      1.3226173     -2.0959896      18134.005    
    165000   1.0402138      0.0023323615  -0.0002901754   19.885404      18.340687      1.5447175     -2.1524829      18178.456    
    166000   0.90555201     0.0023323615  -0.0040240256   19.576277      18.231532      1.3447447     -2.1674349      18050.863    
    167000   1.0407988      0.0023323615  -0.0013666118   20.225515      18.679929      1.5455862     -1.79076        17949.945    
    168000   0.98351145     0.0023323615  -0.00047495159  19.882362      18.421848      1.4605145     -2.005369       18043.071    
    169000   1.0153696      0.0023323615   0.0055697268   20.130401      18.622577      1.5078239     -1.9566388      18016.694    
    170000   1.041498       0.0023323615  -0.00060960035  19.912513      18.365889      1.5466245     -2.1246023      17899.673    
    171000   1.1275017      0.0023323615  -0.0016209618   20.161951      18.487611      1.67434       -2.0629652      17925.89     
    172000   0.94643533     0.0023323615   0.0013040011   19.701091      18.295635      1.4054565     -2.0914056      18041.913    
    173000   0.87071531     0.0023323615   0.002419778    19.599848      18.306836      1.2930122     -2.1965187      18032.053    
    174000   1.0314262      0.0023323615   0.0021436169   20.156758      18.62509       1.5316678     -1.8204216      18111.12     
    175000   0.99589005     0.0023323615  -0.00096839225  19.88661       18.407713      1.4788967     -2.1131037      18076.149    
    176000   0.95718541     0.0023323615  -0.0020934025   20.050442      18.629021      1.4214203     -1.9668031      17919.022    
    177000   0.97416283     0.0023323615   0.0025943416   19.755033      18.308401      1.4466318     -2.265702       18077.704    
    178000   0.93023313     0.0023323615  -0.00068747364  19.996755      18.615359      1.3813962     -1.9509559      17935.057    
    179000   0.95380966     0.0023323615  -0.0019342553   20.069258      18.652851      1.4164073     -2.0094264      17838.601    
    180000   1.068349       0.0023323615  -0.003102802    20.125058      18.538559      1.5864982     -1.9159964      18004.867    
    181000   0.90625831     0.0023323615  -0.00099083096  20.170355      18.824562      1.3457936     -1.7632987      18161.322    
    182000   0.95546665     0.0023323615   0.0023918042   20.006917      18.588049      1.418868      -1.8668017      18228.256    
    183000   0.98893548     0.0023323615   0.0014547381   20.337286      18.868716      1.4685692     -1.7681563      18099.471    
    184000   0.97846372     0.0023323615  -0.00093241912  20.00129       18.548272      1.4530186     -1.9606988      18079.355    
    185000   1.0617294      0.0023323615  -0.0015733866   19.893485      18.316817      1.5766682     -2.1316073      18068.191    
    186000   0.95631871     0.0023323615  -4.8488443e-05  20.004741      18.584607      1.4201333     -1.9371154      18000.081    
    187000   1.0513791      0.0023323615   0.005163322    19.80602       18.244722      1.5612979     -2.1682083      18091.04     
    188000   1.0275504      0.0023323615   0.0002523457   20.157005      18.631092      1.5259124     -2.0507235      18098.65     
    189000   0.89743766     0.0023323615  -0.0044806492   19.922747      18.590052      1.3326949     -1.9917328      18212.644    
    190000   0.99444424     0.0023323615  -0.0025856113   19.939489      18.46274       1.4767497     -1.9935026      18131.386    
    191000   1.0918303      0.0023323615  -0.00088598425  19.951354      18.329986      1.6213679     -2.1262297      18079.741    
    192000   0.99268301     0.0023323615  -0.0024875756   19.876064      18.40193       1.4741343     -2.1067699      18006.358    
    193000   0.9810157      0.0023323615  -0.00014840864  19.92955       18.472741      1.4568083     -1.9538308      17968.212    
    194000   0.99190137     0.0023323615  -0.004159189    19.963163      18.49019       1.4729735     -2.0048663      18063.862    
    195000   0.91571305     0.0023323615   0.0025369048   19.680616      18.320782      1.3598339     -2.0852013      18017.92     
    196000   0.92057167     0.0023323615  -0.0012185086   19.957865      18.590816      1.3670489     -1.9935015      18076.702    
    197000   1.0578039      0.0023323615   0.0046875201   20.300261      18.729423      1.5708387     -1.8813634      18089.758    
    198000   1.0826104      0.0023323615   0.0020573974   20.289766      18.68209       1.6076765     -1.8875604      18141.335    
    199000   0.9221052      0.0023323615  -0.0034229449   20.005645      18.636318      1.3693262     -1.9219549      18025.706    
    200000   0.81118889     0.0023323615  -0.0019391755   19.7039        18.499285      1.2046155     -1.922941       18164.455    
    201000   1.0890461      0.0023323615   0.0042002791   20.12665       18.509417      1.6172335     -1.9448876      18153.424    
    202000   0.87637486     0.0023323615  -0.0016436803   20.132835      18.831418      1.3014167     -1.7872243      18031.509    
    203000   1.066128       0.0023323615   0.0021431432   20.25888       18.67568       1.5832001     -1.8388207      18015.442    
    204000   1.0392081      0.0023323615   8.9063996e-05  20.447768      18.904545      1.543224      -1.6852103      17946.66     
    205000   1.0512651      0.0023323615  -0.0061734096   20.175273      18.614144      1.5611287     -2.0277118      18115.235    
    206000   1.0957362      0.0023323615  -0.0014772158   20.090879      18.463711      1.6271682     -2.0652283      17996.624    
    207000   0.9952916      0.0023323615  -0.0056288899   19.84181       18.363802      1.478008      -2.1916245      18034.852    
    208000   1.0568387      0.0023323615  -0.0039335196   20.408366      18.83896       1.5694054     -1.7074322      18171.138    
    209000   1.0143758      0.0023323615   0.0024296158   20.294176      18.787828      1.5063481     -1.7894361      18233.758    
    210000   0.96254781     0.0023323615   0.00052316604  20.239728      18.810345      1.4293835     -1.6474112      18064.8      
    211000   1.1088335      0.0023323615   0.004388623    19.944485      18.297867      1.6466177     -2.101237       18030.161    
    212000   0.92324724     0.0023323615  -0.0018505089   19.552705      18.181682      1.3710222     -2.4023481      18065.761    
    213000   0.97774011     0.0023323615   0.00058254336  19.86349       18.411546      1.4519441     -1.9528526      17963.675    
    214000   0.91764807     0.0023323615   0.0029262832   20.101265      18.738558      1.3627074     -1.8046504      18117.369    
    215000   0.973787       0.0023323615   0.0010633097   20.048449      18.602376      1.4460737     -1.9460472      18042.268    
    216000   1.0035624      0.0023323615   0.0031426907   20.114146      18.623856      1.4902901     -1.9518643      18041.395    
    217000   1.0952881      0.0023323615   0.0050715968   20.189225      18.562722      1.6265028     -1.9595429      18087.421    
    218000   0.90007971     0.0023323615  -0.0018762753   19.761852      18.425233      1.3366184     -2.0774859      17936.275    
    219000   0.91051752     0.0023323615   0.0062753742   19.92488       18.572762      1.3521185     -2.026449       18058.424    
    220000   1.0981852      0.0023323615  -0.0011504024   20.350366      18.719561      1.630805      -1.92168        18151.84     
    221000   1.0049549      0.0023323615   0.0020634605   19.898754      18.406396      1.492358      -2.1203402      18046.079    
    222000   0.97474608     0.0023323615  -0.0017436355   19.833156      18.385658      1.4474979     -2.1540504      18102.947    
    223000   0.92756463     0.0023323615   0.0044238247   19.980292      18.602858      1.3774335     -2.0180935      18002.311    
    224000   0.80744283     0.0023323615  -0.0031121212   19.669942      18.470889      1.1990526     -2.0255399      17992.226    
    225000   1.0035028      0.0023323615  -0.00091204349  19.973495      18.483293      1.4902016     -2.0212351      18033.868    
    226000   1.0381566      0.0023323615  -0.0019922837   20.010564      18.468902      1.5416625     -2.0893319      17978.623    
    227000   0.87704649     0.0023323615   0.0033400312   19.965133      18.662719      1.302414      -1.9258973      17995.19     
    228000   0.97749955     0.0023323615  -0.0015250251   20.038033      18.586447      1.4515868     -1.8740615      18007.547    
    229000   1.078092       0.0023323615  -0.0010401611   20.222669      18.621702      1.6009667     -1.9295409      18089.984    
    230000   0.97677303     0.0023323615  -0.0012483933   20.227558      18.77705       1.450508      -1.7355332      18046.597    
    231000   0.94494366     0.0023323615   0.0012253469   20.286821      18.88358       1.4032413     -1.7067778      18124.913    
    232000   1.0315986      0.0023323615  -0.0022714713   20.02018       18.488256      1.531924      -1.928802       18216.952    
    233000   0.81861987     0.0023323615   0.00030670373  19.994702      18.779051      1.2156505     -1.7978715      18246.694    
    234000   1.0062058      0.0023323615   0.0007944073   20.078187      18.583972      1.4942156     -2.0653219      18048.066    
    235000   1.042838       0.0023323615   0.00040706936  19.977728      18.429113      1.5486144     -2.2038473      17983.201    
    236000   0.95327707     0.0023323615  -0.0035630967   19.860641      18.445025      1.4156164     -2.093331       17947.583    
    237000   1.117728       0.0023323615   0.00304087     20.353591      18.693765      1.659826      -1.7704863      17989.644    
    238000   0.96750624     0.0023323615  -0.0033371616   20.056376      18.619629      1.4367468     -1.941531       18045.775    
    239000   1.0738433      0.0023323615  -0.0016632856   20.300215      18.705557      1.5946572     -1.8409356      18180.694    
    240000   1.1352685      0.0023323615  -0.0020802419   20.013718      18.327844      1.6858737     -2.2813923      17999.535    
    241000   1.1409293      0.0023323615   0.0045017097   19.91049       18.21621       1.69428       -2.2758921      18044.663    
    242000   1.0179376      0.0023323615  -0.00043946865  20.170155      18.658518      1.5116373     -1.8913112      18117.511    
    243000   0.95727537     0.0023323615  -0.006200886    20.014056      18.592502      1.4215539     -1.9175111      18190.989    
    244000   1.2433471      0.0023323615  -0.0036724216   20.356264      18.509893      1.8463704     -2.1107464      18110.676    
    245000   0.94641059     0.0023323615   0.00039765951  19.904415      18.498995      1.4054197     -2.0774383      18037.358    
    246000   0.96484271     0.0023323615  -0.00051277982  19.963412      18.53062       1.4327914     -2.0671059      18047.27     
    247000   1.0915057      0.0023323615  -0.0030783515   20.060295      18.439409      1.620886      -1.9989425      18095.675    
    248000   0.97743046     0.0023323615   0.0014446596   19.969357      18.517873      1.4514842     -2.1235978      18119.227    
    249000   1.1345505      0.0023323615   0.0033892587   20.067534      18.382726      1.6848075     -2.1693562      18024.632    
    250000   0.95447795     0.0023323615   0.00087928397  20.069911      18.652511      1.4173997     -1.9294639      17921.937    
    251000   0.9286792      0.0023323615  -0.00090217266  19.994891      18.615802      1.3790886     -1.9689336      17915.172    
    252000   0.89607946     0.0023323615   0.0015825564   19.758006      18.427328      1.330678      -2.0121724      18023.357    
    253000   0.90076916     0.0023323615   0.00089128307  20.089426      18.751784      1.3376422     -1.8155462      18008.102    
    254000   1.136876       0.0023323615   0.00091300188  20.40971       18.721449      1.6882608     -1.8748889      18015.468    
    255000   1.0738747      0.0023323615   0.0036199625   20.215087      18.620383      1.5947039     -1.8858186      18055.219    
    256000   0.94375719     0.0023323615  -0.0028004856   20.377187      18.975708      1.4014794     -1.7186328      17976.48     
    257000   0.9980716      0.0023323615   0.00050419134  19.845233      18.363096      1.4821363     -2.091019       18113.647    
    258000   0.81687191     0.0023323615  -0.0043171654   19.977381      18.764326      1.2130548     -1.769044       18012.772    
    259000   1.0036582      0.0023323615  -0.0016550441   20.163749      18.673317      1.4904325     -1.9312995      17967.293    
    260000   1.0996961      0.0023323615  -0.0015811856   19.956804      18.323755      1.6330488     -2.1701389      17946.182    
    261000   1.0878144      0.0023323615  -0.0035681888   20.424667      18.809263      1.6154044     -1.7902746      18080.985    
    262000   0.93683186     0.0023323615  -0.0025762675   20.016064      18.624868      1.3911953     -1.9476847      17995.197    
    263000   0.9617554      0.0023323615  -0.0011016829   19.814261      18.386054      1.4282068     -2.0390452      18061.126    
    264000   1.0672354      0.0023323615   0.0036731884   20.211137      18.626292      1.5848446     -1.9271382      18172.018    
    265000   1.1432313      0.0023323615   1.4529125e-05  20.158287      18.460588      1.6976984     -1.9658584      18075.914    
    266000   0.92751298     0.0023323615   0.00052458725  19.832311      18.454955      1.3773568     -2.0857776      18111.291    
    267000   1.1275184      0.0023323615  -0.00057693744  19.913669      18.239305      1.6743648     -2.1955029      18044.255    
    268000   1.1087061      0.0023323615   0.001863094    20.104318      18.457889      1.6464286     -2.079324       18097.938    
    269000   1.0193172      0.0023323615   0.0021527098   19.93469       18.421004      1.513686      -2.0306173      18121.744    
    270000   1.0453114      0.0023323615  -0.0070424274   20.08376       18.531472      1.5522874     -2.0016397      18125.433    
    271000   0.94584715     0.0023323615   0.0076907493   20.065512      18.660929      1.404583      -1.9597201      18153.061    
    272000   1.0289709      0.0023323615  -0.0027632529   20.363458      18.835436      1.5280218     -1.7181978      18168.195    
    273000   1.0027346      0.0023323615  -0.0038414807   20.130235      18.641174      1.4890609     -2.0341772      18184.327    
    274000   0.95430008     0.0023323615   0.0028616417   19.753986      18.33685       1.4171356     -2.1357814      18152.536    
    275000   1.1887282      0.0023323615   0.0012517179   20.583006      18.817745      1.7652613     -1.7702925      18164.174    
    276000   0.94489015     0.0023323615  -0.0022490504   19.994097      18.590935      1.4031619     -1.9465315      18237.246    
    277000   1.0203049      0.0023323615  -0.00079777273  20.131714      18.616562      1.5151527     -2.0124678      17991.924    
    278000   1.0103638      0.0023323615  -0.003231235    19.970301      18.469911      1.5003903     -2.0011891      18124.854    
    279000   0.93357136     0.0023323615  -0.0043384148   20.222211      18.835858      1.3863535     -1.8916951      18074.594    
    280000   0.98034858     0.0023323615  -0.0018053043   20.063599      18.607781      1.4558176     -2.0143334      18154.735    
    281000   1.0777639      0.0023323615  -0.00095160756  20.245322      18.644843      1.6004793     -1.9322937      18015.786    
    282000   1.0641421      0.0023323615   0.0017477264   20.042696      18.462445      1.5802511     -2.1311959      17957.919    
    283000   0.99170296     0.0023323615   0.00090753503  20.388533      18.915854      1.4726789     -1.7742678      18005.757    
    284000   1.1069805      0.0023323615   0.0010798473   20.302748      18.658882      1.6438661     -1.8540485      18208.999    
    285000   1.1862501      0.0023323615  -0.0010593574   20.273526      18.511944      1.7615815     -1.9788508      17990.011    
    286000   1.0842165      0.0023323615   0.0030101061   20.00917       18.399109      1.6100615     -2.0438367      18122.399    
    287000   1.0060522      0.0023323615  -0.0014423211   19.809562      18.315575      1.4939876     -2.1649882      18099.651    
    288000   0.99469614     0.0023323615   0.0015510757   20.162728      18.685605      1.4771238     -1.982857       18045.253    
    289000   0.93317988     0.0023323615  -2.6411345e-05  20.049661      18.663888      1.3857721     -1.991874       18174.967    
    290000   1.0512475      0.0023323615  -0.0023707649   19.907874      18.346771      1.5611025     -2.1261159      18136.42     
    291000   1.0336963      0.0023323615   0.0036656428   19.752471      18.217432      1.535039      -2.2799558      18132.984    
    292000   1.0502891      0.0023323615  -0.00036486457  19.76017       18.200491      1.5596793     -2.1292108      18055.99     
    293000   1.0422577      0.0023323615  -0.0036472061   20.205355      18.657603      1.5477528     -1.9400124      18136.434    
    294000   0.85895846     0.0023323615  -0.00042413921  19.966788      18.691234      1.2755533     -1.8406884      18087.539    
    295000   0.92359077     0.0023323615   0.00033823742  19.730281      18.358749      1.3715323     -2.1472477      18056.787    
    296000   1.0600372      0.0023323615  -0.0030161907   20.247251      18.673096      1.5741552     -1.7898832      18166.3      
    297000   0.91214652     0.0023323615   0.0026590461   19.968445      18.613907      1.3545376     -1.8096584      18195.956    
    298000   1.0373519      0.0023323615   0.0029344141   19.900466      18.359999      1.5404676     -2.0807466      18103.023    
    299000   1.1123907      0.0023323615  -0.0028144917   20.417142      18.765242      1.6519002     -1.8165774      18194.995    
    300000   0.85566834     0.0023323615  -0.0027244628   19.910297      18.639629      1.2706675     -1.9278711      18268.756    
    301000   0.91822604     0.0023323615  -0.0026103785   19.873052      18.509486      1.3635657     -1.9770098      18265.533    
    302000   0.98248198     0.0023323615  -0.0019615956   20.002872      18.543887      1.4589857     -1.9724746      18215.642    
    303000   0.94029121     0.0023323615  -0.00096841434  19.578584      18.182251      1.3963324     -2.3026797      18044.953    
    304000   0.93489878     0.0023323615   0.00040364438  20.331689      18.943364      1.3883247     -1.691308       18089.958    
    305000   0.95805386     0.0023323615  -0.0033946986   19.787874      18.365164      1.42271       -2.1375653      18115.892    
    306000   0.94195534     0.0023323615  -0.00095429247  20.016199      18.617395      1.3988037     -1.9298547      18275.015    
    307000   0.92668676     0.0023323615   0.0036461389   19.970691      18.594562      1.3761298     -1.8753582      18198.594    
    308000   0.94416512     0.0023323615  -0.0016313095   20.038954      18.636869      1.4020852     -2.0441626      18141.84     
    309000   0.88548952     0.0023323615  -0.0016293567   19.655689      18.340737      1.3149519     -2.1256803      18131.636    
    310000   0.92846571     0.0023323615   0.0038991908   19.80232       18.423548      1.3787716     -2.1625924      18131.581    
    311000   1.1398225      0.0023323615  -0.00013543441  20.341931      18.649294      1.6926364     -1.9912006      18151.242    
    312000   0.99778274     0.0023323615  -0.0017011653   20.087497      18.60579       1.4817074     -1.8880522      18028.328    
    313000   1.0684482      0.0023323615   0.00066573372  20.056358      18.469712      1.5866455     -2.0248315      18076.257    
    314000   0.9640247      0.0023323615  -0.001513343    19.973292      18.541716      1.4315767     -2.0682931      18177.393    
    315000   0.88101527     0.0023323615  -0.0020309326   19.74184       18.433533      1.3083077     -2.0634176      18036.325    
    316000   1.0595686      0.0023323615   0.0016567611   20.010891      18.437431      1.5734594     -1.9435897      18034.653    
    317000   1.1242518      0.0023323615  -0.0012145772   20.018553      18.349039      1.669514      -2.1905712      18130.592    
    318000   1.0986546      0.0023323615   0.0025536467   20.073285      18.441783      1.6315021     -2.1836912      18181.9      
    319000   1.0312361      0.0023323615   0.0056812899   19.941872      18.410487      1.5313856     -2.1546327      18143.967    
    320000   0.93196121     0.0023323615  -0.0025646674   19.870745      18.486783      1.3839624     -1.9740672      18133.886    
    321000   0.93570001     0.0023323615   0.001880247    19.818208      18.428693      1.3895145     -2.1221039      18054.896    
    322000   1.0019855      0.0023323615  -0.0015042172   19.791952      18.304003      1.4879485     -2.0905124      18048.591    
    323000   0.82891738     0.0023323615  -0.0029763365   19.613682      18.382739      1.2309423     -2.1235863      18003.633    
    324000   1.0023211      0.0023323615   0.00011389297  20.039083      18.550637      1.4884469     -1.9732885      18048.314    
    325000   1.0679405      0.0023323615  -0.0018221344   19.810113      18.224222      1.5858917     -2.2919744      17937.69     
    326000   0.97088417     0.0023323615  -0.0044211473   20.028103      18.58634       1.441763      -2.0951176      18073.318    
    327000   1.0306203      0.0023323615   0.0019244109   19.860705      18.330234      1.5304711     -2.1677721      17956.752    
    328000   1.0009089      0.0023323615   0.0030724718   20.240898      18.754548      1.4863496     -1.9124998      18133.013    
    329000   0.97709322     0.0023323615  -0.00046180699  19.71651       18.265527      1.4509834     -2.1826907      18119.806    
    330000   0.91163382     0.0023323615  -0.0041110855   19.919311      18.565534      1.3537762     -1.971278       18133.86     
    331000   0.88918265     0.0023323615  -0.0025918177   20.0223        18.701863      1.3204362     -1.9749773      18071.08     
    332000   1.0603227      0.0023323615   0.00045509407  20.183692      18.609113      1.5745792     -1.9473749      18070.177    
    333000   0.89188682     0.0023323615  -0.0026924582   19.61665       18.292198      1.3244519     -2.1283807      18104.954    
    334000   0.94773404     0.0023323615  -0.00012054586  19.941654      18.534269      1.4073851     -1.9912771      18159.554    
    335000   0.97525481     0.0023323615   0.0045978773   19.764582      18.316329      1.4482534     -2.0885524      18219.17     
    336000   0.9893396      0.0023323615  -0.0061067178   20.216258      18.747089      1.4691693     -1.7899916      18175.589    
    337000   0.83078637     0.0023323615  -0.001845358    19.637966      18.404248      1.2337178     -2.06091        18300.252    
    338000   1.1206643      0.0023323615  -0.0011419532   20.111535      18.447348      1.6641865     -1.9964899      18221.93     
    339000   1.1057051      0.0023323615  -0.00080499549  20.170402      18.52843       1.6419721     -2.0679724      18130.672    
    340000   0.94291504     0.0023323615  -0.0052061638   19.987121      18.586892      1.4002288     -1.9661568      18009.074    
    341000   1.0947349      0.0023323615   0.003345377    20.528306      18.902625      1.6256813     -1.7368609      18098.342    
    342000   0.90595359     0.0023323615   0.0025512922   19.893343      18.548001      1.3453411     -1.8973404      18185.242    
    343000   0.8648566      0.0023323615  -0.0026037127   19.74132       18.457008      1.2843121     -2.0024422      18184.371    
    344000   0.85160578     0.0023323615  -0.0023385115   19.849405      18.58477       1.2646346     -2.0205548      18007.81     
    345000   1.0728727      0.0023323615   0.00051946476  20.133978      18.540763      1.5932159     -1.9981512      18027.627    
    346000   0.9371634      0.0023323615   0.0028010669   19.681107      18.289419      1.3916877     -2.2568189      18020.32     
    347000   0.91556665     0.0023323615  -0.0023085448   19.940403      18.580787      1.3596165     -1.988872       17988.927    
    348000   1.0562325      0.0023323615   0.0001305006   19.94373       18.375224      1.5685053     -2.0559658      18202.241    
    349000   0.82484135     0.0023323615  -0.0030545948   19.849833      18.624944      1.2248894     -1.8953512      18195.967    
    350000   0.96222826     0.0023323615   0.001053916    20.003942      18.575033      1.428909      -1.93885        18075.206    
    351000   0.99605083     0.0023323615  -0.0015920907   19.896993      18.417858      1.4791355     -2.2188137      18023.555    
    352000   0.96965133     0.0023323615  -0.0035151293   19.685805      18.245873      1.4399322     -2.298743       17932.608    
    353000   1.0087019      0.0023323615   0.0033050773   20.018921      18.520998      1.4979223     -1.8936789      18050.295    
    354000   0.98392574     0.0023323615  -0.0012259995   20.17676       18.71563       1.4611297     -1.7849718      18185.146    
    355000   1.112198       0.0023323615  -0.0027159711   20.278516      18.626902      1.651614      -1.9082329      18171.807    
    356000   0.87570406     0.0023323615  -0.0020845645   19.950176      18.649756      1.3004205     -1.9226566      18105.295    
    357000   1.1455458      0.0023323615  -0.001554565    19.943265      18.242129      1.7011356     -2.1605846      18063.891    
    358000   1.071724       0.0023323615   0.00037438482  20.280816      18.689306      1.5915101     -1.8264145      18181.704    
    359000   1.0931626      0.0023323615   0.0012065703   19.909013      18.285666      1.6233465     -2.176323       18111.218    
    360000   1.1133067      0.0023323615  -0.00083606258  19.841776      18.188515      1.6532605     -2.1435923      18086.107    
    361000   1.0872673      0.0023323615   0.0003300787   20.059652      18.44506       1.614592      -2.0060899      18189.461    
    362000   0.9283268      0.0023323615   0.00035656623  19.983963      18.605397      1.3785653     -1.917991       18092.23     
    363000   0.98439229     0.0023323615   0.00058203991  19.538325      18.076503      1.4618226     -2.2951713      18030.763    
    364000   1.0719586      0.0023323615  -0.0057740569   20.109115      18.517256      1.5918585     -1.9446762      17954.902    
    365000   1.1975033      0.0023323615   0.0012123703   20.32538       18.547088      1.7782924     -1.9345613      18011.017    
    366000   1.0631972      0.0023323615  -0.00078501419  20.179252      18.600404      1.5788479     -1.8436801      17971.075    
    367000   0.9123482      0.0023323615   0.000724925    19.865714      18.510877      1.3548371     -2.0297405      17986.545    
    368000   0.9555672      0.0023323615   0.0022262355   19.971703      18.552685      1.4190173     -1.8536544      18030.118    
    369000   0.97933102     0.0023323615  -0.0015233556   20.045343      18.591036      1.4543066     -2.126427       18014.164    
    370000   1.0432409      0.0023323615  -0.0033587227   20.081127      18.531914      1.5492128     -1.9923992      18054.582    
    371000   1.030691       0.0023323615   0.0019229647   20.075842      18.545266      1.5305761     -2.0179786      18080.15     
    372000   0.9292759      0.0023323615  -0.0022457924   20.079146      18.699171      1.3799747     -2.0430133      18177.602    
    373000   0.98687301     0.0023323615  -0.00021853706  19.907368      18.441861      1.4655064     -1.9697386      18136.44     
    374000   0.94054989     0.0023323615  -0.0007321628   19.806458      18.409741      1.3967166     -2.0754512      18030.926    
    375000   1.1117226      0.0023323615  -0.0030105682   20.313798      18.66289       1.650908      -1.9899529      18055.258    
    376000   0.96799542     0.0023323615   0.0032210888   20.08078       18.643307      1.4374732     -2.0084304      18195.947    
    377000   0.83145258     0.0023323615   0.0043205772   19.682073      18.447366      1.2347071     -1.9769229      18334.041    
    378000   0.93800566     0.0023323615  -0.0012116718   19.945952      18.553014      1.3929384     -1.9676524      18156.842    
    379000   1.0304747      0.0023323615  -0.0010881713   20.254521      18.724266      1.530255      -1.8619564      18252.243    
    380000   1.1113629      0.0023323615  -0.00018379548  20.140655      18.490281      1.6503739     -2.2260306      18205.246    
    381000   1.0568552      0.0023323615   0.00070921799  20.135932      18.566502      1.5694299     -1.9716536      18088.699    
    382000   0.8822802      0.0023323615  -0.001635402    20.089397      18.779211      1.3101861     -1.8136917      17800.288    
    383000   1.0490962      0.0023323615   0.00023074016  19.849194      18.291286      1.5579079     -2.1309839      18133.211    
    384000   1.0144563      0.0023323615  -0.0022509637   20.141174      18.634707      1.5064676     -1.8634391      18016.385    
    385000   1.0169415      0.0023323615  -0.0034882795   19.916416      18.406258      1.5101581     -2.212362       17952.889    
    386000   0.89507539     0.0023323615  -0.00014307799  19.792982      18.463795      1.329187      -2.0291213      17920.103    
    387000   0.76209412     0.0023323615  -0.0036464557   19.711096      18.579386      1.1317098     -1.9212381      18042.862    
    388000   0.98606994     0.0023323615   0.0017896931   19.990097      18.525784      1.4643139     -1.9968945      17934.18     
    389000   1.1098602      0.0023323615  -0.0013477873   20.146178      18.498035      1.6481424     -2.0558351      17938.989    
    390000   1.1482522      0.0023323615  -3.5521065e-05  20.358386      18.653232      1.7051545     -1.8632438      17987.239    
    391000   1.1347181      0.0023323615  -0.0034668321   20.106009      18.420952      1.6850563     -2.1008015      18053.912    
    392000   0.8879528      0.0023323615   0.0018661547   19.855385      18.536775      1.3186099     -2.0136164      18117.715    
    393000   1.1374427      0.0023323615  -0.0014291559   20.070004      18.380902      1.6891024     -2.1470392      18181.3      
    394000   0.94313493     0.0023323615   0.00087141802  19.828358      18.427803      1.4005554     -2.0125142      18040.002    
    395000   0.95066697     0.0023323615   0.004397702    19.59652       18.18478       1.4117405     -2.2957948      17972.182    
    396000   1.055738       0.0023323615   0.0022379073   20.236177      18.668406      1.567771      -1.808282       17896.131    
    397000   1.096524       0.0023323615   0.002005226    20.01667       18.388332      1.6283381     -2.0671571      17944.824    
    398000   0.86369836     0.0023323615   0.0030246263   19.577338      18.294746      1.2825921     -2.149206       18068.957    
    399000   1.1052866      0.0023323615  -0.0015300605   20.268752      18.627402      1.6413506     -1.8830774      17907.776    
    400000   1.0885692      0.0023323615   0.003414404    20.220604      18.604079      1.6165252     -1.9626569      18006.566    
    401000   0.99995286     0.0023323615  -0.001535364    20.218371      18.733441      1.48493       -1.8321315      18129.212    
    402000   0.97005137     0.0023323615  -0.0030461349   20.246172      18.805645      1.4405263     -1.7627378      18100.314    
    403000   0.91470847     0.0023323615  -0.0021550342   19.974383      18.616041      1.3583421     -1.9223586      18009.734    
    404000   1.0037928      0.0023323615   0.0013903634   20.16866       18.678028      1.4906322     -2.0395829      18033.2      
    405000   0.99274177     0.0023323615   0.0022570841   19.997734      18.523512      1.4742215     -2.0333127      18231.639    
    406000   1.1561541      0.0023323615   0.0043063007   19.98812       18.271231      1.7168888     -2.1418091      18134.921    
    407000   0.89708981     0.0023323615   0.0047141292   19.80143       18.469251      1.3321784     -2.0226146      18137.435    
    408000   1.0670047      0.0023323615  -0.0041859985   19.962195      18.377693      1.584502      -2.0448803      18040.795    
    409000   1.0632115      0.0023323615  -0.0017736241   19.948814      18.369945      1.5788691     -2.1677528      17945.611    
    410000   0.93655293     0.0023323615  -0.00050586608  20.101625      18.710844      1.3907811     -1.8175739      17974.7      
[...]
    861000   0.90852963     0.0023323615  -0.0023811655   19.652734      18.303568      1.3491665     -2.1917255      18133.83     
    862000   1.0816622      0.0023323615   0.0015771073   20.16003       18.553762      1.6062684     -2.0318937      18081.749    
    863000   0.94855826     0.0023323615  -0.0020870267   19.801275      18.392666      1.408609      -2.0681053      18220.853    
    864000   0.96516556     0.0023323615   0.00097824214  20.01308       18.579809      1.4332709     -1.8649636      18224.436    
    865000   0.99498884     0.0023323615  -0.00079135189  19.794543      18.316984      1.4775584     -2.1712284      18265.972    
    866000   1.0363635      0.0023323615   0.00022541337  20.170041      18.631041      1.5389998     -1.9528141      18165.46     
    867000   0.9458771      0.0023323615   0.0024308448   19.67519       18.270562      1.4046275     -2.3995064      18186.706    
    868000   1.0954837      0.0023323615  -0.00082788128  19.959704      18.332911      1.6267933     -2.2293545      18046.904    
    869000   1.0896206      0.0023323615  -0.00096009453  20.139526      18.521439      1.6180866     -2.1028068      18144.719    
    870000   1.062624       0.0023323615  -0.00023704323  20.286085      18.708088      1.5779966     -1.8118741      18098.9      
    871000   0.97473787     0.0023323615   0.00013317997  19.828786      18.3813        1.4474857     -2.1447752      18195.051    
    872000   1.0537444      0.0023323615   0.00042992964  20.104042      18.539232      1.5648105     -1.9457651      18153.071    
    873000   0.9621812      0.0023323615   0.0017714782   19.919253      18.490414      1.4288391     -1.9688398      18132.104    
    874000   0.862801       0.0023323615  -0.00527546     19.96111       18.67985       1.2812595     -1.8436712      18164.812    
    875000   0.90587388     0.0023323615   0.0030895581   19.886718      18.541496      1.3452227     -1.974718       18109.911    
    876000   1.0208303      0.0023323615   0.0040508844   19.958088      18.442155      1.515933      -2.0315926      18048.686    
    877000   1.0721089      0.0023323615  -0.0023219157   20.098193      18.506111      1.5920817     -1.9905338      18169.385    
    878000   1.0341078      0.0023323615  -0.0015689109   20.196718      18.661068      1.5356501     -1.8368808      18265.988    
    879000   1.1140058      0.0023323615   0.0011836371   20.251271      18.596973      1.6542985     -1.8540019      18242.702    
    880000   0.98141494     0.0023323615   0.00045631378  19.885839      18.428438      1.4574012     -2.0796156      18112.398    
    881000   0.93398091     0.0023323615  -0.002685222    20.002317      18.615355      1.3869616     -1.8871346      18013.598    
    882000   0.94505816     0.0023323615  -0.0035658759   19.713136      18.309724      1.4034114     -2.14591        18106.977    
    883000   1.0229249      0.0023323615  -0.0030959397   20.217543      18.698499      1.5190434     -1.8068689      18386.542    
    884000   0.94390869     0.0023323615   0.0037350491   19.914702      18.512998      1.4017044     -2.0343825      18144.089    
    885000   1.0043544      0.0023323615  -0.00056831757  20.601202      19.109736      1.4914662     -1.7269078      18088.02     
    886000   0.90467859     0.0023323615  -0.0010859091   19.863107      18.519659      1.3434477     -1.9491174      17945.682    
    887000   1.0103612      0.0023323615   0.0020711214   20.057472      18.557085      1.5003863     -1.9008092      18082.266    
    888000   0.88421223     0.0023323615  -0.0020383127   19.95756       18.644505      1.3130552     -1.8857846      18121.908    
    889000   0.87831488     0.0023323615  -0.0016286717   19.939404      18.635107      1.3042976     -1.9069425      18173.653    
    890000   0.98317233     0.0023323615   0.00015117568  20.018725      18.558714      1.4600109     -1.9768769      18127.823    
    891000   0.92788599     0.0023323615  -0.0025412413   19.952415      18.574504      1.3779107     -1.8674009      18176.32     
    892000   0.89386942     0.0023323615  -0.0022551298   19.964895      18.637499      1.3273961     -1.924992       18131.501    
    893000   1.0892817      0.0023323615   0.0030856984   20.376537      18.758954      1.6175833     -1.8014489      18077.806    
    894000   0.97636802     0.0023323615   0.00014869612  20.275329      18.825423      1.4499065     -1.7625528      18239.728    
    895000   1.1556795      0.0023323615  -0.0026099784   19.96679       18.250606      1.7161841     -2.2886868      17968.27     
    896000   0.92752965     0.0023323615  -0.0041571494   20.075937      18.698556      1.3773815     -1.8205896      18142.905    
    897000   0.95433614     0.0023323615   0.00037303441  20.100217      18.683028      1.4171892     -1.7700702      18084.497    
    898000   0.94201802     0.0023323615   0.0018253563   19.896207      18.49731       1.3988968     -2.0212559      18081.624    
    899000   1.1166697      0.0023323615  -0.0013023872   20.005475      18.347221      1.6582544     -2.0794737      18108.458    
    900000   1.1218232      0.0023323615   0.0038061487   20.026153      18.360245      1.6659075     -2.1652223      18089.283    
    901000   1.0346603      0.0023323615  -0.0025614919   20.000503      18.464033      1.5364705     -2.0879246      18183.092    
    902000   1.0186903      0.0023323615   9.5443917e-06  19.872282      18.359527      1.5127551     -2.0518401      18203.563    
    903000   0.94579227     0.0023323615  -6.5734541e-05  20.149045      18.744544      1.4045015     -1.7684013      18110.643    
    904000   0.96347643     0.0023323615   0.00073393673  20.232295      18.801533      1.4307625     -1.7872127      18219.968    
    905000   0.98224703     0.0023323615  -0.002460988    20.059544      18.600908      1.4586368     -1.9881018      18010.257    
    906000   0.86221279     0.0023323615  -0.0031180572   19.770156      18.48977       1.280386      -2.0610764      18142.631    
    907000   1.0081747      0.0023323615  -0.0020098483   19.840564      18.343424      1.4971395     -2.150917       18160.443    
    908000   0.99133677     0.0023323615  -0.0048249746   20.029912      18.557777      1.4721351     -2.0589303      18258.45     
    909000   1.0561904      0.0023323615  -0.0006247308   20.283919      18.715476      1.5684427     -1.8797187      18046.607    
    910000   1.017052       0.0023323615   0.0048113333   19.959521      18.449199      1.5103223     -1.9068773      18166.148    
    911000   0.96166131     0.0023323615   0.00014688834  20.067103      18.639036      1.4280671     -2.0074366      18154.263    
    912000   1.0122279      0.0023323615   6.3219631e-05  19.995928      18.49277       1.5031584     -1.9303496      18073.481    
    913000   1.0199331      0.0023323615   0.000440476    19.788613      18.274012      1.5146006     -2.1705369      18186.203    
    914000   0.91309949     0.0023323615  -0.00046577737  20.076983      18.721031      1.3559527     -1.8158419      18178.641    
    915000   1.0560443      0.0023323615   0.00044376534  20.303984      18.735759      1.5682257     -1.9749813      18208.976    
    916000   1.0577668      0.0023323615  -0.0029803046   19.981276      18.410492      1.5707837     -2.1163739      18182.714    
    917000   0.93654573     0.0023323615   0.0029696558   20.050669      18.659899      1.3907704     -1.8560537      18182.052    
    918000   1.0755962      0.0023323615   0.0013159312   19.986226      18.388966      1.5972604     -2.1003498      17853.278    
    919000   1.0368078      0.0023323615  -0.0049015122   20.121625      18.581965      1.5396596     -2.0025721      17895.56     
    920000   1.0618069      0.0023323615  -0.00015302865  20.484678      18.907895      1.5767833     -1.6660969      18140.441    
    921000   0.99609603     0.0023323615  -0.0032695746   19.840416      18.361213      1.4792026     -2.1328217      18000.321    
    922000   1.1013693      0.0023323615   0.0014086071   20.425797      18.790263      1.6355334     -1.9110019      17990.199    
    923000   0.93665438     0.0023323615   0.0024919756   20.11342       18.722488      1.3909318     -1.9113127      18105.597    
    924000   0.95825767     0.0023323615   0.0013320221   19.999683      18.57667       1.4230126     -1.8601662      18341.618    
    925000   0.96501506     0.0023323615  -0.0011413569   19.950222      18.517175      1.4330474     -1.9944963      17995.871    
    926000   1.0724577      0.0023323615  -0.00015917672  20.106042      18.513442      1.5925996     -2.070617       18129.107    
    927000   1.1314801      0.0023323615  -0.00092454133  20.126497      18.446249      1.680248      -2.1384463      18024.61     
    928000   0.92751902     0.0023323615   0.0020215785   19.858267      18.480901      1.3773658     -1.9849175      18167.877    
    929000   1.0538502      0.0023323615  -0.0032988129   20.504331      18.939363      1.5649675     -1.7203527      18120.543    
    930000   0.92552295     0.0023323615   0.0015608823   20.003359      18.628957      1.3744016     -1.8701665      18257.509    
    931000   1.065836       0.0023323615  -0.0019248116   20.233693      18.650927      1.5827664     -1.857242       18356.592    
    932000   0.92418343     0.0023323615   0.0026147456   20.010271      18.637859      1.3724124     -1.7985644      18248.469    
    933000   1.0579007      0.0023323615   0.0026367206   20.118678      18.547695      1.5709826     -1.9677076      18232.019    
    934000   0.97316786     0.0023323615   2.6594474e-05  19.818638      18.373484      1.4451543     -2.1115742      18186.558    
    935000   1.0419969      0.0023323615   0.0035422556   20.282887      18.735521      1.5473654     -1.7712995      18072.205    
    936000   1.0534628      0.0023323615  -0.0015942869   20.301693      18.737301      1.5643923     -1.9161654      18144.435    
    937000   1.0028638      0.0023323615  -0.0021130617   19.98405       18.494797      1.4892527     -2.0283618      18221.475    
    938000   0.98556412     0.0023323615  -0.0025663858   20.137213      18.673651      1.4635627     -1.9144148      18214.458    
    939000   0.90084453     0.0023323615  -0.0017598749   20.019116      18.681362      1.3377541     -1.7581735      18321.203    
    940000   0.95464577     0.0023323615   0.0013004292   20.042328      18.624679      1.417649      -1.8972771      18383.321    
    941000   0.95260646     0.0023323615  -0.0011814984   19.976374      18.561753      1.4146206     -1.8492332      18225.028    
    942000   0.91205901     0.0023323615  -0.00099106524  20.037097      18.682689      1.3544076     -1.8411078      18339.529    
    943000   0.76531133     0.0023323615   0.00041704962  19.81609       18.679603      1.1364873     -1.82584        18279.834    
    944000   1.1723885      0.0023323615   0.00093940403  20.275318      18.534321      1.740997      -1.9073764      18217.893    
    945000   1.0618223      0.0023323615   0.0030159753   19.92714       18.350334      1.5768062     -2.0883868      18087.037    
    946000   0.97300045     0.0023323615   0.00058153681  20.171507      18.726601      1.4449057     -1.7969914      17953.933    
    947000   0.94840568     0.0023323615   7.0353956e-06  19.970217      18.561835      1.4083824     -1.9370686      18099.428    
    948000   0.9894867      0.0023323615  -0.001507164    19.508806      18.039418      1.4693878     -2.4621233      18019.283    
    949000   0.97915819     0.0023323615  -0.0032006629   20.189298      18.735249      1.4540499     -1.8023637      18002.318    
    950000   1.0626564      0.0023323615   0.0017005604   20.20062       18.622575      1.5780448     -1.8012468      18137.138    
    951000   1.0608555      0.0023323615  -0.0010590556   20.316671      18.741301      1.5753704     -1.8151482      18104.793    
    952000   0.94606801     0.0023323615  -0.0030450451   20.154635      18.749724      1.404911      -1.8143517      18313.027    
    953000   1.104445       0.0023323615  -0.00094348503  20.241549      18.601448      1.6401009     -1.9083535      18318.271    
    954000   1.1408862      0.0023323615   0.0058041166   20.203472      18.509256      1.694216      -1.9601768      18271.505    
    955000   0.95099094     0.0023323615  -0.0011423859   19.8941        18.481878      1.4122215     -1.98821        18154.923    
    956000   0.94018094     0.0023323615   0.0035740766   19.789687      18.393518      1.3961687     -2.0157689      18197.128    
    957000   0.96204424     0.0023323615   0.0021068237   20.013005      18.584369      1.4286357     -1.9637937      18274.944    
    958000   1.0282922      0.0023323615   0.0009584785   19.920523      18.393509      1.5270138     -2.263821       18392.386    
    959000   0.9720408      0.0023323615  -0.0012129432   20.060135      18.616655      1.4434806     -2.0051265      18430.788    
    960000   0.85080525     0.0023323615  -0.00014597765  19.833774      18.570329      1.2634458     -1.8838583      18206.053    
    961000   0.92551594     0.0023323615   0.0016728686   19.838372      18.463981      1.3743912     -1.9708825      18055.147    
    962000   1.0293858      0.0023323615  -0.0005850359   19.874681      18.346043      1.5286379     -2.1105959      18007.105    
    963000   1.1353245      0.0023323615   0.0016242539   20.294514      18.608557      1.6859569     -1.9004332      18046.493    
    964000   0.94786106     0.0023323615  -0.0012466271   19.9032        18.495626      1.4075737     -1.8912984      18020.425    
    965000   1.061114       0.0023323615   0.00028745333  20.21497       18.639215      1.5757543     -1.8668977      18229.408    
    966000   1.0030515      0.0023323615  -0.0009760027   20.120283      18.630752      1.4895314     -1.8658097      18049.081    
    967000   1.143467       0.0023323615   0.0024003751   20.337149      18.6391        1.6980484     -1.8490548      18058.796    
    968000   1.0160928      0.0023323615   0.00061813077  19.856285      18.347387      1.5088979     -2.0973256      18053.714    
    969000   0.94173455     0.0023323615  -0.0033423321   19.889918      18.491442      1.3984758     -2.0494524      18092.581    
    970000   1.1426091      0.0023323615   0.0038795858   19.963697      18.266922      1.6967745     -2.2257511      18007.365    
    971000   0.95908052     0.0023323615   0.0019773902   19.75521       18.330975      1.4242346     -2.142518       17869.544    
    972000   1.0036277      0.0023323615  -0.0033517059   20.09391       18.603522      1.4903871     -1.9012653      18093.273    
    973000   0.88441861     0.0023323615  -0.0025629009   19.740699      18.427338      1.3133616     -2.0689303      18131.673    
    974000   1.05773        0.0023323615  -0.0004829384   19.950674      18.379945      1.5707291     -2.0747183      19368.293    
    975000   0.99369154     0.0023323615   0.0013456984   19.892097      18.416465      1.4756319     -2.1016839      19197.64     
    976000   1.0292413      0.0023323615  -0.00133084     20.129605      18.601181      1.5284233     -1.9242752      19141.807    
    977000   0.92386188     0.0023323615   1.6918037e-05  19.680768      18.308834      1.3719349     -2.1250169      19655.033    
    978000   0.91232659     0.0023323615  -0.0042440713   19.95657       18.601765      1.354805      -1.9242141      18966.433    
    979000   0.9489051      0.0023323615  -0.0012725317   19.633562      18.224438      1.4091241     -2.3059756      18311.381    
    980000   1.0432319      0.0023323615  -0.0022882637   20.324894      18.775695      1.5491993     -1.9517596      18086.873    
    981000   1.1644389      0.0023323615   0.0011893267   20.494832      18.76564       1.7291918     -1.882522       18095.747    
    982000   0.97122781     0.0023323615   0.0026609793   20.014762      18.572488      1.4422733     -2.020997       18703.115    
    983000   0.90908346     0.0023323615  -0.0028549943   19.842142      18.492153      1.3499889     -1.8903832      18131.544    
    984000   0.98941986     0.0023323615   0.00021224623  19.950796      18.481508      1.4692885     -2.0130772      18020.258    
    985000   0.81764427     0.0023323615   0.00019414977  19.578917      18.364715      1.2142017     -2.1254831      18419.312    
    986000   1.0231417      0.0023323615   0.0024044123   20.061215      18.54185       1.5193655     -1.9141167      18873.135    
    987000   1.0023356      0.0023323615   0.0015040265   20.045679      18.55721       1.4884684     -2.0801159      18217.849    
    988000   0.85512866     0.0023323615  -0.0046372337   19.80861       18.538744      1.2698661     -1.9532169      18463.715    
    989000   1.084504       0.0023323615   0.00040535673  20.178355      18.567866      1.6104885     -1.9378863      18590.485    
    990000   1.067098       0.0023323615  -0.0013930418   20.368464      18.783823      1.5846405     -1.8536267      18543.796    
    991000   0.88713544     0.0023323615  -0.0027924694   20.086215      18.768819      1.3173961     -1.9461537      18727.398    
    992000   0.95085315     0.0023323615   0.0012876985   20.024276      18.612259      1.4120169     -1.9677072      19041.643    
    993000   1.0071433      0.0023323615  -0.0023294297   19.77545       18.279842      1.4956078     -2.2254536      19698.902    
    994000   0.86892116     0.0023323615   0.0015199464   19.973105      18.682757      1.2903479     -1.9477978      19473.619    
    995000   0.99463048     0.0023323615  -0.0029400861   19.823382      18.346356      1.4770263     -2.0859249      19472.689    
    996000   0.97111473     0.0023323615   0.0022131073   19.620634      18.178529      1.4421054     -2.308629       19282.12     
    997000   1.0318218      0.0023323615   0.00085841383  19.736833      18.204577      1.5322553     -2.1944081      19731.531    
    998000   0.92345726     0.0023323615   0.00062064051  20.048135      18.676801      1.371334      -1.8752141      19675.774    
    999000   0.97600805     0.0023323615  -0.00030410618  20.242009      18.792637      1.449372      -1.8462081      19447.795    
   1000000   1.0620515      0.0023323615  -0.0017103572   20.187952      18.610806      1.5771465     -1.901263       19122.217    
Loop time of 55.1212 on 1 procs for 1000000 steps with 100 atoms

Performance: 7837277.117 tau/day, 18141.845 timesteps/s
99.5% CPU use with 1 MPI tasks x 1 OpenMP threads

MPI task timing breakdown:
Section |  min time  |  avg time  |  max time  |%varavg| %total
---------------------------------------------------------------
Pair    | 46.197     | 46.197     | 46.197     |   0.0 | 83.81
Bond    | 1.2784     | 1.2784     | 1.2784     |   0.0 |  2.32
Neigh   | 3.7695     | 3.7695     | 3.7695     |   0.0 |  6.84
Comm    | 1.3731     | 1.3731     | 1.3731     |   0.0 |  2.49
Output  | 0.21235    | 0.21235    | 0.21235    |   0.0 |  0.39
Modify  | 1.9376     | 1.9376     | 1.9376     |   0.0 |  3.52
Other   |            | 0.3535     |            |       |  0.64

Nlocal:            100 ave         100 max         100 min
Histogram: 1 0 0 0 0 0 0 0 0 0
Nghost:            300 ave         300 max         300 min
Histogram: 1 0 0 0 0 0 0 0 0 0
Neighs:           4851 ave        4851 max        4851 min
Histogram: 1 0 0 0 0 0 0 0 0 0

Total # of neighbors = 4851
Ave neighs/atom = 48.51
Ave special neighs/atom = 1.98
Neighbor list builds = 97782
Dangerous builds = 79135

write_data      ${outputfile_assembled} nofix nocoeff
write_data      7_assembled.data nofix nocoeff
System init for write_data ...
Generated 0 of 6 mixed pair_coeff terms from geometric mixing rule

Total wall time: 0:00:56
