ITEM: TIMESTEP
0
ITEM: NUMBER OF ATOMS
200
ITEM: BOX BOUNDS pp pp pp
-5.2373677999999998e+01 4.7626322000000002e+01
-5.4845078000000001e+01 4.5154921999999999e+01
-4.9129330000000003e+01 5.0870669999999997e+01
ITEM: ATOMS id type xu yu zu vx vy vz
108 1 -4.68006 -9.8997 -8.41496 -0.323233 -0.420288 -0.43989
110 1 -5.04462 -10.2759 -9.30804 -0.837073 0.133651 2.05079
109 1 -4.21187 -10.5742 -8.85088 1.02043 -0.0130673 0.529402
111 1 -5.54588 -9.39614 -9.52422 0.054935 -0.628791 -1.04278
112 1 -5.54562 -8.42154 -9.44998 1.80024 0.438529 -0.565799
113 1 -5.67394 -8.03439 -8.58908 0.896958 0.270707 0.472954
105 1 -6.59829 -9.87969 -7.46977 0.717131 -0.914277 -1.37856
107 1 -5.21577 -10.4455 -7.77811 -0.588571 -1.6723 0.62107
106 1 -5.8748 -9.80948 -8.06931 0.844125 0.433386 -0.634532
101 1 -6.82565 -7.9129 -6.92407 -0.7881 0.0477296 -0.89236
1 1 -6.15244 -7.20896 -7.01041 0.960502 -0.0656884 0.267331
114 1 -5.16121 -8.32421 -7.7574 0.131138 -1.19965 -1.50622
115 1 -4.63289 -8.08268 -6.98554 -0.975542 -1.52318 -0.906294
2 1 -6.49889 -6.30528 -7.00377 -1.9034 0.124871 1.39636
3 1 -7.25254 -5.73518 -7.26525 -1.67089 0.938026 -0.294256
7 1 -7.99766 -4.1851 -7.39583 1.78771 0.499028 -1.12083
4 1 -7.6856 -5.38011 -8.02441 1.00845 -1.90736 -0.713469
5 1 -8.47129 -5.27896 -7.49942 -1.07579 0.976814 0.476068
6 1 -8.3492 -4.57596 -8.14588 -1.17907 1.0306 -2.58075
9 1 -7.81036 -3.14476 -7.34279 -1.52458 -2.22229 0.873239
13 1 -7.74147 -1.41967 -6.91297 -0.116497 -1.57469 0.519679
19 1 -4.71433 -0.366607 -7.27073 1.31715 0.720827 -0.330753
20 1 -4.82707 0.527898 -7.61957 -1.1492 1.05849 -0.447962
21 1 -4.6329 1.32171 -7.07922 0.483008 0.269954 0.00887749
23 1 -4.92336 2.60953 -7.54897 -2.5351 -0.0756951 -1.27617
24 1 -5.25879 3.35186 -7.09828 0.474745 0.681685 0.399101
104 1 -6.41846 -9.5219 -6.56964 -0.516974 0.374353 -1.34675
103 1 -5.58192 -9.09166 -6.24058 -2.04228 -0.343246 0.216303
121 1 -6.3623 -7.67595 -5.67 -0.384094 2.06157 0.533414
102 1 -6.06319 -8.25296 -6.42663 -0.243091 0.0144594 1.10742
116 1 -4.5296 -7.29351 -6.45302 0.566935 -0.417628 -0.903082
119 1 -5.9501 -5.87143 -5.51802 0.305089 0.463953 -0.629308
120 1 -6.27532 -6.77035 -5.87839 -1.07023 0.217906 0.0224906
117 1 -4.56341 -6.36921 -6.22036 -0.426877 -1.24686 -0.355862
118 1 -5.29622 -6.53321 -5.63532 -0.322071 -0.796992 0.98669
8 1 -8.5797 -3.51963 -6.83193 -0.235729 -0.198491 -1.36891
10 1 -7.49309 -3.08664 -6.39078 1.38949 0.0953921 0.714038
11 1 -8.03852 -2.30036 -6.3763 -0.964212 -0.43706 0.745283
12 1 -7.15922 -1.91159 -6.26965 -0.269445 0.253679 1.46213
14 1 -7.54218 -0.689751 -6.32463 -0.684875 0.374379 -0.0397367
16 1 -6.44148 -0.229986 -5.72339 -0.320737 -1.65557 1.77783
17 1 -5.91863 -0.733803 -6.35626 0.263073 2.49839 -0.375883
18 1 -5.01391 -0.392264 -6.36939 2.61214 -1.6378 1.23716
15 1 -7.11202 0.181971 -6.26753 0.426088 -0.0716353 -0.146986
22 1 -5.19371 2.01921 -6.78698 2.38589 2.24343 -1.23467
25 1 -4.76951 3.87258 -6.3954 -0.552901 0.760785 -1.15886
26 1 -5.09746 4.46023 -5.66985 -0.14798 -0.992115 -1.88165
123 1 -7.38997 -7.00403 -4.34954 -1.5588 -1.13377 -0.161955
122 1 -6.97378 -7.63175 -4.93999 1.00977 -1.11039 0.117665
28 1 -4.69755 3.66328 -4.34928 -0.55241 0.964997 -0.00141574
27 1 -4.45301 3.87237 -5.22413 -0.228015 0.552228 1.70128
124 1 -7.52005 -7.58269 -3.61606 -2.4963 0.269636 1.2649
126 1 -6.15196 -7.12894 -3.51618 0.88272 -1.71935 0.341669
128 1 -4.76267 -7.43962 -3.69828 -0.295773 -0.873081 -0.328648
129 1 -4.54043 -7.5248 -2.7465 -0.731909 2.0464 0.371876
125 1 -7.03254 -6.78783 -3.35332 0.513197 0.239678 1.51839
127 1 -5.29031 -6.64032 -3.76923 -0.995985 1.10424 -1.14362
29 1 -4.7272 4.37124 -3.69837 0.384053 0.910184 0.244665
30 1 -4.24057 4.39602 -2.80271 -0.155357 -0.697706 -0.365534
31 1 -3.28669 4.59551 -2.84268 0.543269 0.901915 -0.584242
32 1 -2.42101 4.33994 -3.29961 1.32345 2.37798 1.15216
33 1 -1.88497 4.85327 -2.69688 0.63574 -0.74297 -0.325617
34 1 -1.44738 5.13568 -3.57854 -1.77908 0.768855 0.777692
37 1 -2.53049 6.34616 -3.38274 -0.880876 -0.0274204 0.137928
36 1 -1.77131 6.12906 -3.90242 0.665727 0.469912 0.39877
35 1 -1.20618 6.00572 -3.10831 -0.657794 -0.00988578 -0.968785
38 1 -3.01556 7.17153 -3.30308 0.689619 0.3268 0.586856
44 1 -6.49103 9.53441 -2.73512 2.93812 -0.971773 -0.533265
130 1 -4.57535 -7.01914 -1.86433 0.395795 0.0168353 -1.10398
131 1 -3.61522 -6.82105 -1.60738 -0.373314 0.75992 -1.23196
132 1 -3.82953 -5.96698 -2.0302 -0.194782 -1.47999 0.385242
133 1 -4.34989 -5.76601 -1.25117 1.21304 -0.382819 0.772265
135 1 -3.77767 -3.99495 -1.26133 1.09781 -0.620898 -1.37652
39 1 -3.40256 7.69565 -2.607 -0.529965 -0.936273 0.392985
45 1 -7.00713 9.11192 -2.03961 1.99566 1.08998 -1.43542
42 1 -5.17691 8.91713 -2.30577 -0.731606 -0.836752 -0.219073
43 1 -5.69718 9.71992 -2.33735 -0.810289 0.195086 0.609509
40 1 -3.79073 8.56885 -2.41702 -1.15665 1.43461 1.13445
41 1 -4.28581 9.35082 -2.47961 -1.07707 -0.637735 0.0587591
134 1 -4.27181 -4.79701 -1.12393 -1.1816 -1.01955 0.53754
136 1 -3.2897 -3.74147 -0.451724 -0.0651551 -0.309377 -1.20413
137 1 -3.08571 -2.86801 -0.262505 1.90214 -0.288076 0.804155
57 1 -4.24495 4.03711 -0.432151 1.99029 -1.57898 -0.862734
53 1 -6.00554 5.38036 -0.393363 -0.306319 1.02576 0.17898
51 1 -6.51398 6.54543 -0.510612 -0.907711 0.664783 0.14325
52 1 -5.67123 6.23157 -0.103228 -1.38403 1.74926 -0.324957
48 1 -7.59431 8.4868 -0.517065 -2.18079 -1.12045 -0.0530647
49 1 -6.68569 8.23419 -0.705218 0.131442 -0.928386 1.14644
50 1 -7.09586 7.36382 -0.596437 -1.46336 -0.113466 -0.306429
47 1 -7.52099 9.3879 -0.331445 0.298059 -0.388534 0.679737
46 1 -7.11709 9.54064 -1.20414 -0.357578 0.257571 0.777031
173 1 -2.41011 -12.1181 0.798532 0.561908 -1.30304 -0.656201
174 1 -1.50322 -12.1561 1.10717 -0.857479 0.702003 0.607315
176 1 -0.469819 -11.3073 1.54201 -0.127638 0.859202 -0.2449
175 1 -1.40926 -11.1708 1.25897 -0.12433 0.855093 -0.0263151
177 1 0.192871 -10.6923 1.14775 0.879558 1.08257 -2.40778
167 1 -2.38016 -9.18628 1.33066 0.233906 -0.496428 -0.157541
166 1 -2.82191 -8.35199 1.46982 -0.513368 -0.429452 1.03935
138 1 -3.60871 -2.74385 0.507782 1.84119 0.981938 -0.738423
141 1 -3.54272 -2.04733 1.50998 -1.18372 0.84512 -0.556067
140 1 -4.47088 -2.09399 1.29001 -0.658358 0.0397574 1.59958
139 1 -4.48142 -2.37762 0.341394 -0.61276 0.241658 -0.466755
143 1 -2.21379 -2.41511 0.268685 0.118938 -0.414144 -0.97023
142 1 -2.78996 -2.11376 0.946346 0.929071 -0.414041 1.20299
144 1 -1.61973 -2.08227 0.960947 0.523064 -0.287393 -0.194745
55 1 -6.01645 4.11029 0.275573 -0.513439 -0.154572 -0.463218
56 1 -5.09848 3.82815 0.168169 -0.193771 -0.330671 -2.32867
60 1 -3.31135 4.29238 1.29179 0.730828 0.511328 0.328499
59 1 -4.27991 4.09323 1.16376 -0.194584 -0.223882 1.64354
54 1 -6.07204 5.0905 0.509235 0.0878907 -0.49874 0.863832
58 1 -4.07689 4.62419 0.311476 0.887664 -0.225106 -0.130469
172 1 -2.50757 -11.837 1.70612 0.569432 0.414777 0.405456
171 1 -2.19873 -11.0553 2.08267 0.116321 1.28548 -0.531499
178 1 0.130258 -10.4347 2.01092 -0.961491 1.64681 0.131867
179 1 0.70252 -10.7555 2.6635 1.53051 -0.331474 -1.65055
168 1 -2.00079 -9.4629 2.18943 0.234529 0.299089 -0.530206
165 1 -2.34224 -8.01618 2.17682 -0.0147577 0.824478 1.10849
164 1 -2.3641 -7.07124 1.85105 0.058002 0.30313 0.756313
163 1 -2.01683 -6.75085 2.64121 0.237474 -0.10649 -0.463324
147 1 -2.24914 -2.63206 2.56302 0.107494 1.64672 -1.78121
148 1 -2.85352 -2.04018 2.94343 -1.09093 -1.03168 1.15675
145 1 -1.225 -2.00053 1.83326 -1.16687 -0.799439 -0.579949
146 1 -1.30656 -2.68206 2.48641 -0.345683 0.822924 0.987717
62 1 -3.11728 3.83778 2.77419 1.54593 -1.18486 0.639094
61 1 -3.15024 4.62179 2.22728 -0.145548 -0.228684 -0.398846
100 1 -2.11237 8.68449 1.99036 -0.558316 -0.373549 -1.18635
99 1 -1.88436 8.58809 2.89352 0.47328 0.536609 -0.0248002
170 1 -2.1055 -10.8086 3.03561 0.528906 2.54542 -1.09171
169 1 -2.00715 -9.83425 3.03478 0.116174 0.284118 -1.18282
180 1 0.840934 -11.0403 3.59601 -0.120296 -0.555681 0.0587923
181 1 1.1144 -10.1866 4.00355 0.228652 0.891733 -0.17105
183 1 1.50176 -9.23743 4.24095 0.55553 0.481871 2.2359
182 1 1.66369 -9.73209 3.36294 -0.361975 1.32967 0.392765
161 1 -3.27899 -6.84055 4.07495 1.89398 1.07431 -0.23043
162 1 -2.54266 -6.87579 3.43012 -0.882871 0.665189 0.595649
149 1 -3.60754 -2.25018 3.50472 -2.39692 -0.293756 1.17529
150 1 -2.86166 -2.20178 4.08534 -0.107382 -0.0727668 1.7616
64 1 -3.15153 2.52136 3.98564 0.119693 -1.71394 0.920606
63 1 -3.37127 3.44555 3.6883 -1.27819 0.607268 0.984877
92 1 -5.96723 6.82233 4.3275 -1.3336 1.1922 -0.00870377
94 1 -4.72403 6.95022 3.88519 0.512932 -0.342494 1.61439
96 1 -3.27997 7.36957 4.29838 -1.0279 0.0609912 -0.0930319
98 1 -2.52533 8.23924 3.51956 -0.445457 -0.17357 0.152722
97 1 -2.35687 7.76128 4.3302 -0.908571 -0.118946 -1.7963
184 1 2.46196 -8.82744 4.49691 -0.226289 0.323466 1.8629
186 1 3.37669 -9.62872 5.69934 -0.120997 -1.13596 0.478462
185 1 2.57547 -9.44853 5.24946 0.638848 0.568245 -0.798053
159 1 -2.22311 -6.20547 5.48976 1.24762 -0.942816 -0.0421746
160 1 -2.93832 -6.33887 4.83606 -0.990204 -1.32433 -1.74756
199 1 3.94339 -6.91124 5.59139 0.0704757 1.29634 -0.0240226
200 1 3.81881 -6.04681 5.14873 1.02598 0.451241 -0.987978
158 1 -2.72621 -5.45718 5.71182 -0.889695 -0.155338 -0.122348
152 1 -3.61 -2.43095 5.75498 1.18884 -0.615574 -1.16261
151 1 -3.29265 -2.12118 4.9065 0.0828422 -0.886827 0.942767
66 1 -3.94192 2.63385 5.30153 0.692624 0.264538 0.929983
65 1 -3.25721 3.20729 4.80309 -0.648585 1.03173 0.177222
90 1 -5.64878 5.6511 5.69519 0.510037 -0.452576 -1.5815
91 1 -6.17535 6.22036 5.09996 -0.292657 -0.294946 -0.75872
89 1 -5.05623 6.49757 5.73148 0.108721 1.80587 -0.22351
93 1 -5.08256 6.83942 4.71018 0.259622 -0.0347644 -0.988266
95 1 -4.18641 7.53538 4.44434 -0.653878 -1.06147 -1.50116
188 1 1.90607 -9.20781 6.69517 -0.317746 -1.0014 0.2637
187 1 2.82624 -9.30444 6.43245 1.03683 0.600985 1.85011
198 1 4.53597 -7.16158 6.27943 -1.44844 0.65726 -0.98853
197 1 4.77786 -6.59216 6.98932 0.710052 -0.484055 0.71667
157 1 -3.33151 -4.77881 6.06035 -0.153407 -0.0974812 -0.804694
156 1 -2.94782 -4.12183 6.72025 -0.184243 1.21849 1.5904
155 1 -2.30428 -3.56118 7.19479 -1.39321 0.455338 1.26248
153 1 -3.19806 -2.11815 6.56786 -1.19192 1.03669 -1.66414
154 1 -2.51501 -2.66574 6.87893 -0.584805 -0.629565 0.61789
67 1 -3.42404 2.74351 6.08917 0.383818 1.10074 0.670983
68 1 -3.63315 1.79247 6.10313 0.851942 1.66476 -1.26265
69 1 -2.92975 1.93708 6.90563 2.27229 -1.24357 -0.922376
86 1 -6.36797 6.7507 6.8699 -1.82485 -0.615376 0.47815
88 1 -5.28803 6.82312 6.57163 -0.602429 0.0910775 -0.0046253
87 1 -6.01408 7.29574 6.1192 0.216032 -1.74155 -0.630608
189 1 1.54947 -8.92575 7.54567 0.284951 0.656325 -0.903072
190 1 1.52619 -7.89703 7.66412 0.114128 1.08997 -0.0514225
193 1 3.56337 -7.43216 8.57642 0.0504874 -0.939335 -0.13449
192 1 2.6936 -7.09075 8.18412 -0.599619 0.764122 -0.308691
194 1 3.08609 -8.15216 8.14236 -0.119657 -0.381655 0.635587
195 1 3.52245 -7.86245 7.32037 -1.39674 0.138844 0.651067
196 1 3.94845 -6.97034 7.35089 1.16395 -0.34879 -1.71756
191 1 1.85303 -6.89409 7.72179 0.314048 -0.960653 1.64152
70 1 -3.40567 2.25078 7.71691 -2.52681 -0.106807 -1.07358
72 1 -3.15208 3.61576 8.14455 -0.240828 0.488772 2.41305
71 1 -3.91013 2.99445 8.008 0.229659 0.985843 0.481332
84 1 -5.55316 5.31596 7.44331 1.16928 -0.803839 -0.85506
83 1 -5.04164 4.74592 8.055 0.347383 2.20392 0.139729
73 1 -3.02604 4.59803 8.15257 0.368057 1.12831 0.342673
85 1 -5.9096 6.16037 7.51232 1.31454 -0.191699 2.00085
81 1 -5.05403 4.19604 9.52116 -0.387163 -1.56886 0.500864
82 1 -5.56945 4.37661 8.79846 2.26415 0.187505 0.519003
74 1 -3.48301 4.67178 9.0441 0.994936 -0.542653 0.190476
75 1 -3.09266 5.02379 9.81966 0.191157 2.01527 0.538323
80 1 -5.08827 3.68275 10.393 0.604432 -0.832332 0.745941
79 1 -5.14315 4.55236 10.7729 0.973051 1.46302 -0.241441
77 1 -3.89668 5.11174 11.3329 -1.82668 -0.000870414 -1.08631
76 1 -3.13774 5.47666 10.8472 0.135445 1.60962 -0.390919
78 1 -4.6284 4.61661 11.6062 1.97381 -1.08252 0.605187
ITEM: TIMESTEP
10000
ITEM: NUMBER OF ATOMS
200
ITEM: BOX BOUNDS pp pp pp
-5.2373677999999998e+01 4.7626322000000002e+01
-5.4845078000000001e+01 4.5154921999999999e+01
-4.9129330000000003e+01 5.0870669999999997e+01
ITEM: ATOMS id type xu yu zu vx vy vz
151 1 -4.88911 -1.60273 -2.65339 1.80136 -1.16571 -0.762054
83 1 -7.2415 -1.65756 -0.0911424 0.772082 -0.56905 2.71732
105 1 -6.58922 -0.0133871 -2.98002 -0.521062 1.5302 -0.157071
104 1 -5.87013 0.65413 -3.35394 0.716059 0.509003 -0.125346
86 1 -7.02113 -0.484646 -2.19395 0.00321251 0.66192 1.46105
154 1 -5.29662 -1.96346 -1.57218 0.241225 1.20207 -0.732043
160 1 -3.8717 -2.00645 -3.00014 -0.653118 -0.0119869 -0.564204
82 1 -6.85143 -1.82546 0.770054 -1.0971 -0.62442 1.27619
153 1 -5.06614 -1.23822 -0.996709 1.48588 -0.590693 1.3731
152 1 -4.77157 -1.04545 -1.90081 -0.363364 0.683243 1.67101
155 1 -4.86657 -2.78925 -1.89357 -0.67303 -0.90699 -0.233842
150 1 -4.3703 -0.810655 -2.79733 -0.502072 0.640789 -0.746103
149 1 -3.76596 -0.332697 -2.26306 1.55951 -1.20456 0.106235
171 1 -2.29064 -1.49135 -2.33984 -0.413361 1.64375 -0.195816
169 1 -2.84257 0.0440128 -2.85273 -0.879916 -1.00326 0.907183
170 1 -2.76808 -0.720633 -2.26479 2.28414 0.942863 0.339392
172 1 -1.66237 -2.12736 -2.06564 0.899869 0.753569 -0.151923
173 1 -1.20137 -1.89241 -1.14059 -0.179095 0.557413 -1.35711
69 1 -7.65602 -0.680085 0.399911 -1.0474 1.34457 0.33667
106 1 -6.02903 0.0890421 -2.23181 -2.19006 0.00735634 0.671234
107 1 -5.89374 -0.864725 -2.25615 -1.24319 -0.474706 -0.336327
84 1 -7.16953 -1.71456 -1.10342 0.815254 -1.22171 0.798049
109 1 -4.90223 0.0103949 -2.19815 0.0433983 0.711546 2.1031
108 1 -5.33068 -0.430633 -2.9036 1.50004 1.92619 -0.665267
103 1 -6.15679 1.3214 -2.69126 1.23648 -0.0172834 -0.293014
148 1 -3.85749 0.569836 -2.45951 0.32562 0.059271 -0.6236
167 1 -2.31732 0.065333 -1.54076 1.81107 0.345855 -0.946773
68 1 -7.84485 -0.34437 -0.441295 0.556044 -1.4928 -1.25679
87 1 -7.00725 0.514083 -2.1208 -1.14044 1.0703 0.73408
74 1 -6.16768 -1.24123 -0.796053 -0.905502 -0.73099 -1.08269
85 1 -7.47105 -0.805357 -1.46373 -1.00534 -1.85057 1.54458
102 1 -5.4362 0.886657 -2.16657 -0.525843 0.864436 1.01203
101 1 -5.15606 0.68159 -1.25369 0.185322 -0.397842 -1.02703
147 1 -4.09814 0.338053 -1.51666 -0.0132898 0.412613 -0.167786
54 1 -8.1039 1.46761 0.496112 -1.59676 0.265916 1.24843
53 1 -7.75263 1.72273 -0.395939 1.03537 1.10295 0.884052
88 1 -7.43014 0.228991 -1.32309 0.609605 -1.18107 -0.790017
89 1 -7.54026 1.16193 -1.36457 0.738097 -2.36758 0.339646
90 1 -7.5408 2.11159 -1.41796 1.09171 0.405883 -0.158277
48 1 -5.93498 2.5699 -1.41641 -0.804403 -0.275318 -0.14855
163 1 -2.5053 -2.93452 -2.33392 0.698856 -0.129674 0.616809
175 1 -1.68778 -2.24977 0.175797 0.493267 0.484186 0.350272
176 1 -1.60383 -1.40419 -0.269775 -2.65253 1.06667 -0.610654
80 1 -7.28851 -3.32414 0.818963 0.624094 0.217359 -1.47796
156 1 -4.96169 -2.82111 -0.922903 -0.0297152 -1.87191 -0.742775
157 1 -4.42018 -2.2727 -0.284815 -0.984123 -0.232348 1.63283
159 1 -3.85033 -1.75319 -2.04892 1.06147 -0.479397 0.166572
158 1 -4.14038 -2.00775 -1.14088 1.0812 0.0894092 0.49388
168 1 -2.01798 0.262602 -2.46551 0.280416 -0.259857 -1.12183
161 1 -3.16273 -1.33379 -3.14937 -0.775707 -0.757586 -0.103896
164 1 -2.83172 -2.27711 -1.76231 -0.816694 0.304312 -0.00265079
165 1 -3.11621 -1.37486 -1.51956 0.221629 0.992007 -0.975119
162 1 -2.86385 -2.2797 -2.95931 -0.664587 1.24328 1.24207
174 1 -1.69987 -2.61901 -0.717177 2.23652 3.14759 0.0837018
177 1 -2.25527 -1.8166 -0.84828 -0.104809 1.1559 -0.333853
70 1 -7.07083 -0.496702 1.07894 -1.50869 0.246084 -0.655394
71 1 -6.43078 -0.77758 0.439828 1.13675 1.66923 0.922921
81 1 -7.57373 -2.41863 0.612365 1.80847 0.550391 0.0657492
77 1 -5.70156 -2.16715 0.762418 0.415285 -0.976079 -1.83558
76 1 -5.55987 -2.06673 -0.174383 -0.0902899 0.642771 0.577194
75 1 -5.59742 -1.0768 -0.0300257 0.277072 0.104957 0.788334
124 1 -4.69489 -1.6876 0.531374 0.7602 -0.411615 1.21615
138 1 -3.2284 -1.06752 -0.483525 0.0976872 0.234463 -0.787693
125 1 -5.25707 -1.11893 1.04092 0.682235 -1.91615 -0.0530875
166 1 -2.39636 -0.809636 -1.1902 1.50795 -0.552623 0.350056
144 1 -2.5343 0.146122 -0.400949 0.43461 -0.886608 -1.03805
199 1 -1.15547 -1.75767 0.876583 0.821074 0.0895059 0.185029
200 1 -1.45511 -0.916155 0.595216 -0.617304 -1.71223 0.716076
72 1 -6.72761 -0.38474 -0.358704 0.501753 -0.349515 0.0904851
66 1 -7.79914 0.391324 0.411365 -0.123751 0.117554 -1.45808
67 1 -8.11907 0.574422 -0.484059 0.1366 0.620201 0.132757
112 1 -5.71451 0.74117 -0.133819 -0.913877 -0.111142 -1.50545
73 1 -6.48138 -0.480042 -1.28743 -0.954591 0.665265 -0.183073
51 1 -6.62184 0.79471 -1.11983 -1.61886 0.234462 -0.000523522
146 1 -4.125 -0.578969 -1.1885 -0.612621 -2.42043 0.811546
110 1 -5.42424 -0.289165 -1.46803 -0.499292 -0.216515 -1.70652
111 1 -5.61055 -0.167329 -0.572774 0.2167 0.886145 0.638705
1 1 -4.68751 0.111368 -0.609634 -0.688388 0.731405 0.727313
2 1 -4.17132 0.946553 -0.545825 -1.01863 0.145402 0.121604
145 1 -3.24551 -0.25498 -0.995823 -2.00388 0.992172 0.42164
4 1 -3.36398 0.985094 -1.16889 0.0619542 -1.10096 1.40275
3 1 -4.0934 1.66898 -1.07353 -0.233139 0.128201 0.00951079
5 1 -3.06003 1.14741 -0.207153 -2.06804 -0.0941031 -0.522955
6 1 -2.32253 1.64873 0.0968897 -0.151207 1.14083 -0.206302
55 1 -7.93019 2.42728 0.357541 1.70405 1.15156 -0.11402
60 1 -7.16714 2.7284 1.35389 0.499579 -0.30589 0.178767
52 1 -7.13581 0.933234 -0.351645 1.34905 -0.622735 -0.342014
65 1 -7.20542 1.09851 0.70196 0.575886 0.151903 1.88683
50 1 -6.35187 1.64123 -0.715617 -0.0550195 -0.379524 0.0409223
46 1 -4.98597 2.11484 -0.438119 0.551256 -1.24017 0.103652
47 1 -5.29024 1.8012 -1.35627 -0.322012 1.33354 0.707184
29 1 -3.41552 2.0829 -0.0164897 0.12531 0.527592 0.525696
35 1 -3.54971 2.92091 -0.664387 -1.18854 -0.268422 -1.61718
28 1 -3.06788 2.02456 -0.85378 -0.517798 -1.1068 0.124834
27 1 -2.29942 1.45165 -0.890866 -1.01975 1.70674 -0.4478
33 1 -1.94627 2.45509 -0.614723 -0.445558 -1.8913 -1.18028
57 1 -7.79983 3.42964 0.202972 0.941535 -0.00635986 1.45847
56 1 -7.97352 2.80695 -0.499102 2.61046 -1.39799 -2.58564
58 1 -6.95475 3.0119 0.180428 -0.491315 -0.874812 0.0519219
91 1 -6.81794 2.61385 -0.913381 0.579296 -0.0627953 -0.192976
49 1 -6.3709 1.704 -1.65779 2.75235 -1.20941 -0.674722
37 1 -4.80308 3.14759 -0.525437 -0.415392 0.0816452 -0.167523
34 1 -2.65381 3.03104 -0.936719 0.290051 -0.682978 -0.143659
180 1 -3.23907 -2.82524 1.13995 1.1223 0.0883534 0.643926
179 1 -2.69061 -2.71669 0.285764 0.613751 0.633951 -0.452532
181 1 -2.3574 -2.99971 1.48122 0.333081 -1.09936 1.13774
185 1 -0.345866 -1.85711 1.95745 -0.951931 0.557529 1.12079
186 1 -0.635793 -1.01765 2.37265 -0.635614 -0.982121 -0.372091
79 1 -6.52155 -2.78245 0.615367 -0.736532 -0.0404449 -0.0300511
78 1 -5.61484 -3.11331 0.954406 -0.0658709 0.242364 1.07384
122 1 -4.83362 -1.93793 1.67251 -1.09358 -0.114325 1.47238
136 1 -3.65117 -1.80869 0.232759 0.608872 2.76246 -0.265388
137 1 -4.19582 -1.29726 -0.358507 -0.365749 -1.38117 0.128124
135 1 -3.76569 -1.35241 1.03731 -0.462867 0.0398099 1.48283
197 1 -2.84327 -1.65886 1.28468 0.0388654 -1.17843 1.49809
198 1 -2.04759 -2.08555 1.13787 0.190957 -0.294254 -0.77684
178 1 -3.01458 -2.27491 -0.545975 -0.564733 -0.650682 0.6227
188 1 -1.25831 0.446144 3.36245 0.543966 -0.0301865 1.00546
187 1 -1.10734 -0.376883 2.87613 -0.32743 -0.56641 0.041084
116 1 -5.61773 -0.000546266 0.512428 -0.548233 -1.56151 0.228786
117 1 -5.7918 -0.38102 1.48692 0.0783343 -0.912019 -1.00349
123 1 -4.23803 -2.40207 1.08019 -0.431152 -0.337403 -0.200893
118 1 -6.53883 -0.19287 2.02717 -0.352079 -1.34117 -2.90379
126 1 -4.65823 -0.599546 0.484303 -1.1703 0.455198 0.310194
141 1 -3.13442 0.0287056 1.17337 0.0163869 0.229282 -1.64717
139 1 -2.75908 -1.32891 0.306326 0.51421 -0.353413 -1.20287
140 1 -2.51073 -0.438193 0.644117 0.62093 -0.196911 -0.0494392
190 1 -1.22071 -0.0589127 1.87704 -1.03387 -1.51566 -2.36829
189 1 -0.938271 0.657872 2.41461 0.0503417 -0.0741399 0.000457581
114 1 -6.21858 0.795224 1.25906 -1.44251 -0.429184 -0.632467
113 1 -5.91767 1.40853 0.508679 0.836569 0.122677 0.00343633
128 1 -4.093 0.392374 0.613547 0.0950501 -0.871242 -1.27624
95 1 -5.64953 2.67139 0.00575871 -0.042896 -1.64 0.122731
127 1 -3.85173 -0.33247 -0.0149873 -1.10032 0.682362 1.95487
142 1 -2.80914 0.768512 0.650953 -0.696872 0.660603 0.0281947
143 1 -1.93671 0.376722 0.260347 -2.21828 -2.31677 0.254295
22 1 -1.80443 0.494588 1.27394 0.476631 -0.115423 0.833504
24 1 -1.04838 1.26348 0.920224 -0.86168 0.35307 0.131568
25 1 -1.2713 1.3532 -0.0207284 -0.301401 -0.417481 0.459876
23 1 -1.90514 1.40593 1.24568 0.631124 0.993732 -1.25689
62 1 -6.72107 1.70808 1.89146 -0.311937 0.797097 -0.106295
61 1 -7.54287 1.83354 1.3863 2.72981 -0.0306279 1.34866
63 1 -6.36259 2.08528 1.07418 0.821349 -0.243892 0.830039
94 1 -5.71229 3.58217 0.154255 -0.312361 -0.802833 0.144406
64 1 -6.98774 1.88594 0.364944 0.0129055 0.910614 0.0967741
36 1 -4.18878 2.73805 0.0438313 -0.601244 -1.56937 0.60862
97 1 -5.5533 2.62726 1.56832 -0.434326 -0.384969 0.830751
45 1 -4.9547 1.39002 0.283944 -0.0874253 -0.489138 -0.538278
30 1 -3.46314 2.62111 0.764717 0.39622 0.375512 -0.941842
44 1 -4.00125 1.38782 0.556031 0.247133 -0.498167 -2.51154
7 1 -2.80563 1.85357 0.910894 -1.77318 -0.616959 -1.52702
31 1 -3.07825 3.44681 0.468925 -0.91497 1.67392 -0.669995
26 1 -1.63843 0.78748 -0.713754 1.50807 -1.04558 -1.50846
59 1 -6.46528 3.32224 0.926724 -0.630164 1.38691 -1.8042
93 1 -6.29851 3.47597 -0.717237 -0.868302 0.501676 1.32294
92 1 -7.13609 3.51795 -1.1876 -0.117773 0.215737 0.932453
38 1 -4.14 3.75958 -0.288462 0.192156 1.93175 0.222313
39 1 -4.71502 3.47931 0.432399 -0.668633 -0.80592 -1.23551
32 1 -2.65334 2.7222 0.0117264 -0.7171 0.921878 -0.409079
182 1 -1.67797 -3.1094 0.863448 1.17064 0.261534 -0.643881
183 1 -1.28782 -3.15283 1.70303 -0.345268 0.0771573 -1.41294
184 1 -0.450971 -2.72136 1.48265 -0.209696 -0.725126 -0.0581192
120 1 -5.87446 -1.4727 2.2691 0.833227 -0.0645338 0.714874
121 1 -4.97164 -1.77621 2.64405 0.64539 1.0305 -1.77737
195 1 -2.35979 -1.25249 2.48763 0.523841 -0.323133 -1.97894
194 1 -2.50754 -2.12354 2.12887 0.339836 -1.21993 1.33452
193 1 -1.61971 -2.15187 2.41682 -0.780942 0.736188 -0.570226
18 1 -2.33607 0.431307 3.4343 -0.545726 0.252236 -0.340378
192 1 -1.50469 -1.38579 1.79319 0.561929 1.00904 -0.35664
119 1 -6.72578 -1.10253 2.05981 0.451703 0.331609 -0.799243
133 1 -3.98524 -1.18963 2.05807 -0.514221 -0.392274 0.542224
132 1 -4.12365 -0.327893 2.56234 -1.50845 -0.709287 1.68689
134 1 -4.03066 -0.483637 1.37603 -1.63315 0.464522 0.213487
20 1 -3.36782 0.511997 2.23503 0.314583 0.619519 -0.895579
19 1 -2.94983 1.01956 2.96348 -0.0871131 1.99326 0.100482
131 1 -4.88555 -0.65627 2.07929 -0.603518 -0.117199 0.668369
196 1 -2.93228 -0.838993 1.83869 0.232518 -0.329877 1.7893
16 1 -1.93371 0.941722 2.5562 0.615422 0.39554 0.0912129
191 1 -1.9697 -0.562975 1.72643 -0.548955 2.45493 1.33559
96 1 -5.17665 2.36946 0.719494 0.596129 1.10659 0.0185877
115 1 -6.52936 0.360775 0.424464 0.0668384 -0.603105 -1.76017
129 1 -4.86649 0.310818 1.09661 -0.723547 1.1363 -0.922831
130 1 -5.12011 0.237955 2.0197 0.706217 0.72084 0.746991
42 1 -4.89093 1.49313 1.39242 -0.740765 0.613524 -0.274612
43 1 -4.04193 1.08505 1.46049 1.07805 -0.543088 0.860391
11 1 -3.98266 1.47269 2.41506 -0.707081 -0.189984 -0.465291
21 1 -2.59724 0.720157 1.71003 0.185536 -1.52773 -0.502955
10 1 -3.07017 1.61225 2.14508 -0.316449 1.41605 -0.159808
98 1 -6.31686 2.67904 2.13606 -0.471083 0.635006 1.75179
99 1 -6.76893 3.55391 1.91398 -0.426489 0.87767 0.403485
41 1 -4.23757 2.22262 1.51848 2.16069 1.32044 0.538719
9 1 -2.91154 2.55222 1.81247 0.370967 -0.166163 -0.786693
8 1 -2.26163 2.61942 1.08758 -0.0371205 0.580235 -0.286464
40 1 -4.51486 3.10479 1.38592 -0.760031 0.422242 0.656401
12 1 -3.81346 1.57362 3.40017 1.21367 -0.613462 -1.34991
13 1 -3.2375 2.26817 3.2583 1.71933 -0.542805 -0.241183
17 1 -2.29255 0.0132276 2.53373 0.706853 1.13399 -0.141395
14 1 -2.60062 1.75056 3.93109 -0.603464 0.801314 1.60644
15 1 -2.05971 1.76169 3.09701 -1.37086 -0.494044 0.650416
100 1 -6.40413 4.4071 1.97563 -1.50224 2.14605 0.957719
ITEM: TIMESTEP
20000
ITEM: NUMBER OF ATOMS
200
ITEM: BOX BOUNDS pp pp pp
-5.2373677999999998e+01 4.7626322000000002e+01
-5.4845078000000001e+01 4.5154921999999999e+01
-4.9129330000000003e+01 5.0870669999999997e+01
ITEM: ATOMS id type xu yu zu vx vy vz
29 1 -6.48963 1.74767 -4.17769 -0.805969 0.412778 -0.767936
30 1 -5.56308 1.63658 -4.18347 0.119213 0.528092 0.596708
31 1 -4.97155 1.14579 -3.56573 0.68427 -1.32872 1.16828
162 1 -2.8975 1.34716 -2.91721 1.35367 1.4213 0.363293
28 1 -6.67751 2.14751 -3.25483 -0.234448 0.740457 0.0993434
171 1 -4.8504 2.35563 -3.86722 -0.348122 -1.41503 -0.10932
172 1 -5.54811 2.07234 -3.21749 0.697133 1.05115 1.74447
169 1 -3.60894 2.8504 -3.0176 -1.36458 -0.0715551 0.348013
170 1 -3.96592 2.70238 -3.96219 2.15031 0.102487 1.11213
23 1 -6.9119 3.97256 -3.24589 1.85347 -1.11788 -1.21879
22 1 -6.31563 3.30244 -2.90494 0.884984 0.912012 0.245866
174 1 -4.93305 3.11786 -3.12697 1.14597 -0.970964 -0.3848
175 1 -4.19055 3.7225 -3.45794 0.00427193 -0.764172 0.558561
179 1 -2.8587 4.50522 -2.71214 -0.874294 0.809269 0.675905
41 1 -7.44275 -0.0138165 -1.77723 0.751415 -1.35725 -0.10261
35 1 -6.1291 0.0798769 -1.73508 0.415763 1.05368 -0.134426
5 1 -5.0978 -0.846068 -1.50034 0.429744 0.151846 1.68194
6 1 -4.6315 -0.191119 -1.96157 0.438047 0.605472 -0.170964
4 1 -4.04024 -0.773825 -1.32926 0.371954 -0.108575 -1.0765
40 1 -8.39318 0.264537 -1.89969 1.34428 -0.727577 0.889818
34 1 -6.47226 0.378799 -2.55495 0.327671 -0.156319 0.26239
37 1 -6.98565 1.14665 -1.47826 1.68594 1.33617 0.361492
33 1 -5.51039 0.350565 -2.57477 1.10436 1.4862 -1.22961
32 1 -4.81924 0.993999 -2.64497 0.982126 2.2098 0.925679
7 1 -5.16904 0.433915 -1.48907 -0.692191 0.450878 -0.375004
8 1 -5.60436 1.23027 -1.86266 0.968063 -1.31653 0.341143
145 1 -4.41467 1.15145 -1.26994 1.07987 0.123242 -0.245484
164 1 -3.40533 1.28397 -1.60629 -0.596583 -0.174145 -1.3467
163 1 -3.75004 1.15623 -2.47841 0.254001 -0.457402 0.484096
161 1 -2.30532 0.706369 -2.55947 0.137756 -0.230403 -0.349221
160 1 -2.80945 0.395115 -1.76832 0.700011 -1.15565 -1.79186
26 1 -7.51674 2.84977 -1.6946 -0.851423 0.85416 1.19979
27 1 -7.10999 2.70386 -2.59734 1.5948 0.329722 0.697294
9 1 -6.36144 1.77904 -2.15103 0.0938075 -0.666542 -0.48837
21 1 -6.24862 2.88823 -1.93515 -0.923865 0.368512 0.464525
10 1 -6.60545 2.16405 -1.27165 -0.40857 -1.25691 0.367315
144 1 -4.78438 2.03273 -1.52779 -0.957649 -0.029963 0.618742
173 1 -5.30261 2.6541 -2.37741 -0.315084 2.44111 -0.107672
168 1 -4.35408 2.41365 -2.60495 1.4341 -0.868372 0.593461
165 1 -3.77075 2.16866 -1.64707 -0.854789 1.20433 -0.247405
186 1 -2.95664 2.90065 -1.73803 2.74546 0.563218 0.883496
25 1 -7.65158 3.72831 -2.04773 -1.48051 0.832522 -0.428082
20 1 -6.6226 3.72327 -1.64095 -0.494011 0.504469 0.734571
143 1 -5.11623 2.96672 -1.38183 0.544628 0.345692 -1.57801
142 1 -5.30942 3.59501 -2.03827 -2.6507 -0.0712914 -1.144
176 1 -4.52318 4.00584 -2.55702 -0.919776 0.902179 -0.821397
167 1 -4.09766 3.12951 -1.99011 -0.188187 -0.298806 0.474767
177 1 -4.39145 4.11803 -1.62984 0.229351 -1.69845 2.21351
178 1 -3.53576 4.03493 -2.13323 0.703514 0.666374 0.521955
188 1 -2.71744 4.2872 -1.52942 -1.21758 -0.0867388 -0.677936
181 1 -1.81858 3.48671 -1.9744 1.3798 -2.47657 -0.540153
24 1 -7.18789 4.46848 -2.35147 -0.890984 -0.163328 1.29194
180 1 -2.0379 4.37009 -2.24123 -0.256825 0.53776 0.468284
191 1 -1.28837 5.0321 -1.32004 -2.21784 1.21431 0.194008
44 1 -6.70814 -1.46711 -0.0717364 -0.0976489 0.318192 0.458551
101 1 -5.77797 -1.55663 -0.568985 -0.667303 -0.145835 -0.147236
102 1 -4.92563 -1.98384 -0.595433 0.23919 -0.683169 0.806299
94 1 -8.13563 -1.14743 0.1627 0.445808 -0.236719 -0.648827
96 1 -7.91638 -0.100796 -0.0406123 0.386925 -1.22428 -0.055719
42 1 -6.94566 -0.0778807 -0.900708 -0.922085 -0.873773 -0.19215
43 1 -7.04151 -1.00131 -0.82047 0.200536 -0.411843 1.93879
1 1 -6.0677 -0.725415 -0.942206 0.143604 -0.628044 0.150839
45 1 -6.12743 -0.761765 0.11014 0.693896 0.778571 0.971574
2 1 -5.35792 -0.220732 -0.554286 -0.0467807 0.021166 -0.256106
3 1 -4.54272 -0.716818 -0.528452 0.817739 -1.03504 0.43801
148 1 -3.59989 0.0526972 -0.05779 -1.41121 -0.352754 -0.224276
149 1 -3.33797 -0.698211 -0.480378 -1.73189 0.639139 -0.523723
158 1 -2.01699 0.0335421 -0.676426 0.983569 0.103171 -0.0910901
157 1 -2.52941 -0.140696 0.131919 0.480482 -0.778206 -0.0692887
39 1 -8.31662 0.520089 -0.967273 -0.0129149 0.132832 -0.411346
38 1 -7.46153 0.746763 -0.636293 -0.0139112 1.78064 -0.341607
36 1 -6.21842 0.857064 -1.02813 0.343361 0.692408 -0.337579
130 1 -5.4601 0.856944 -0.422194 -1.05029 -0.150402 0.322641
129 1 -4.55058 0.681107 -0.281167 0.267708 0.811708 -0.726679
146 1 -4.12722 0.223886 -1.01527 -0.534506 -1.10876 -0.2068
147 1 -3.54044 0.839172 -0.635589 -0.601618 0.335047 -1.26654
159 1 -2.47336 0.812915 -0.935516 0.359086 0.376036 -0.696591
14 1 -7.84619 1.72845 -0.333995 -0.679564 0.416781 -0.574523
11 1 -6.81019 1.74665 -0.498911 0.107954 0.273769 -0.348995
114 1 -6.42645 2.67671 0.0530242 0.150894 -1.02167 0.403987
131 1 -5.66305 1.65168 -0.817488 -1.19653 0.255922 -0.742201
132 1 -5.76609 2.58004 -0.778886 -0.194888 -0.888668 -0.677156
134 1 -4.82425 1.83956 -0.390042 -1.55922 -1.25958 0.945335
133 1 -4.90289 2.77749 -0.352113 -0.943671 -1.69706 -1.61763
166 1 -4.09745 2.82849 -1.06341 -1.48159 -0.327319 -1.13371
135 1 -3.91619 2.00502 -0.463799 -1.34367 0.604718 1.85727
185 1 -2.68942 2.42127 -0.938289 0.65627 -1.19312 -0.882947
125 1 -2.28731 1.54245 -0.0369791 -0.0535107 -0.500393 -0.597313
184 1 -1.79601 1.95101 -1.11481 1.31159 1.81336 -0.417641
183 1 -1.49673 2.77878 -0.71323 -0.309245 -1.44895 -0.117004
18 1 -7.36172 2.9527 -0.202153 -0.944813 -0.0962179 0.0723123
19 1 -6.81249 3.56207 -0.775833 -1.02259 -0.022403 0.344146
141 1 -5.66376 3.95022 -1.1685 -0.4645 -0.0266971 1.14302