ITEM: TIMESTEP
0
ITEM: NUMBER OF ATOMS
200
ITEM: BOX BOUNDS pp pp pp
-5.2373677999999998e+01 4.7626322000000002e+01
-5.4845078000000001e+01 4.5154921999999999e+01
-4.9129330000000003e+01 5.0870669999999997e+01
ITEM: ATOMS id type xu yu zu vx vy vz
1 1 -6.15244 -7.20896 -7.01041 0.960502 -0.0656884 0.267331
2 1 -6.49889 -6.30528 -7.00377 -1.9034 0.124871 1.39636
3 1 -7.25254 -5.73518 -7.26525 -1.67089 0.938026 -0.294256
4 1 -7.6856 -5.38011 -8.02441 1.00845 -1.90736 -0.713469
5 1 -8.47129 -5.27896 -7.49942 -1.07579 0.976814 0.476068
6 1 -8.3492 -4.57596 -8.14588 -1.17907 1.0306 -2.58075
7 1 -7.99766 -4.1851 -7.39583 1.78771 0.499028 -1.12083
8 1 -8.5797 -3.51963 -6.83193 -0.235729 -0.198491 -1.36891
9 1 -7.81036 -3.14476 -7.34279 -1.52458 -2.22229 0.873239
10 1 -7.49309 -3.08664 -6.39078 1.38949 0.0953921 0.714038
11 1 -8.03852 -2.30036 -6.3763 -0.964212 -0.43706 0.745283
12 1 -7.15922 -1.91159 -6.26965 -0.269445 0.253679 1.46213
13 1 -7.74147 -1.41967 -6.91297 -0.116497 -1.57469 0.519679
14 1 -7.54218 -0.689751 -6.32463 -0.684875 0.374379 -0.0397367
15 1 -7.11202 0.181971 -6.26753 0.426088 -0.0716353 -0.146986
16 1 -6.44148 -0.229986 -5.72339 -0.320737 -1.65557 1.77783
17 1 -5.91863 -0.733803 -6.35626 0.263073 2.49839 -0.375883
18 1 -5.01391 -0.392264 -6.36939 2.61214 -1.6378 1.23716
19 1 -4.71433 -0.366607 -7.27073 1.31715 0.720827 -0.330753
20 1 -4.82707 0.527898 -7.61957 -1.1492 1.05849 -0.447962
21 1 -4.6329 1.32171 -7.07922 0.483008 0.269954 0.00887749
22 1 -5.19371 2.01921 -6.78698 2.38589 2.24343 -1.23467
23 1 -4.92336 2.60953 -7.54897 -2.5351 -0.0756951 -1.27617
24 1 -5.25879 3.35186 -7.09828 0.474745 0.681685 0.399101
25 1 -4.76951 3.87258 -6.3954 -0.552901 0.760785 -1.15886
26 1 -5.09746 4.46023 -5.66985 -0.14798 -0.992115 -1.88165
27 1 -4.45301 3.87237 -5.22413 -0.228015 0.552228 1.70128
28 1 -4.69755 3.66328 -4.34928 -0.55241 0.964997 -0.00141574
29 1 -4.7272 4.37124 -3.69837 0.384053 0.910184 0.244665
30 1 -4.24057 4.39602 -2.80271 -0.155357 -0.697706 -0.365534
31 1 -3.28669 4.59551 -2.84268 0.543269 0.901915 -0.584242
32 1 -2.42101 4.33994 -3.29961 1.32345 2.37798 1.15216
33 1 -1.88497 4.85327 -2.69688 0.63574 -0.74297 -0.325617
34 1 -1.44738 5.13568 -3.57854 -1.77908 0.768855 0.777692
35 1 -1.20618 6.00572 -3.10831 -0.657794 -0.00988578 -0.968785
36 1 -1.77131 6.12906 -3.90242 0.665727 0.469912 0.39877
37 1 -2.53049 6.34616 -3.38274 -0.880876 -0.0274204 0.137928
38 1 -3.01556 7.17153 -3.30308 0.689619 0.3268 0.586856
39 1 -3.40256 7.69565 -2.607 -0.529965 -0.936273 0.392985
40 1 -3.79073 8.56885 -2.41702 -1.15665 1.43461 1.13445
41 1 -4.28581 9.35082 -2.47961 -1.07707 -0.637735 0.0587591
42 1 -5.17691 8.91713 -2.30577 -0.731606 -0.836752 -0.219073
43 1 -5.69718 9.71992 -2.33735 -0.810289 0.195086 0.609509
44 1 -6.49103 9.53441 -2.73512 2.93812 -0.971773 -0.533265
45 1 -7.00713 9.11192 -2.03961 1.99566 1.08998 -1.43542
46 1 -7.11709 9.54064 -1.20414 -0.357578 0.257571 0.777031
47 1 -7.52099 9.3879 -0.331445 0.298059 -0.388534 0.679737
48 1 -7.59431 8.4868 -0.517065 -2.18079 -1.12045 -0.0530647
49 1 -6.68569 8.23419 -0.705218 0.131442 -0.928386 1.14644
50 1 -7.09586 7.36382 -0.596437 -1.46336 -0.113466 -0.306429
51 1 -6.51398 6.54543 -0.510612 -0.907711 0.664783 0.14325
52 1 -5.67123 6.23157 -0.103228 -1.38403 1.74926 -0.324957
53 1 -6.00554 5.38036 -0.393363 -0.306319 1.02576 0.17898
54 1 -6.07204 5.0905 0.509235 0.0878907 -0.49874 0.863832
55 1 -6.01645 4.11029 0.275573 -0.513439 -0.154572 -0.463218
56 1 -5.09848 3.82815 0.168169 -0.193771 -0.330671 -2.32867
57 1 -4.24495 4.03711 -0.432151 1.99029 -1.57898 -0.862734
58 1 -4.07689 4.62419 0.311476 0.887664 -0.225106 -0.130469
59 1 -4.27991 4.09323 1.16376 -0.194584 -0.223882 1.64354
60 1 -3.31135 4.29238 1.29179 0.730828 0.511328 0.328499
61 1 -3.15024 4.62179 2.22728 -0.145548 -0.228684 -0.398846
62 1 -3.11728 3.83778 2.77419 1.54593 -1.18486 0.639094
63 1 -3.37127 3.44555 3.6883 -1.27819 0.607268 0.984877
64 1 -3.15153 2.52136 3.98564 0.119693 -1.71394 0.920606
65 1 -3.25721 3.20729 4.80309 -0.648585 1.03173 0.177222
66 1 -3.94192 2.63385 5.30153 0.692624 0.264538 0.929983
67 1 -3.42404 2.74351 6.08917 0.383818 1.10074 0.670983
68 1 -3.63315 1.79247 6.10313 0.851942 1.66476 -1.26265
69 1 -2.92975 1.93708 6.90563 2.27229 -1.24357 -0.922376
70 1 -3.40567 2.25078 7.71691 -2.52681 -0.106807 -1.07358
71 1 -3.91013 2.99445 8.008 0.229659 0.985843 0.481332
72 1 -3.15208 3.61576 8.14455 -0.240828 0.488772 2.41305
73 1 -3.02604 4.59803 8.15257 0.368057 1.12831 0.342673
74 1 -3.48301 4.67178 9.0441 0.994936 -0.542653 0.190476
75 1 -3.09266 5.02379 9.81966 0.191157 2.01527 0.538323
76 1 -3.13774 5.47666 10.8472 0.135445 1.60962 -0.390919
77 1 -3.89668 5.11174 11.3329 -1.82668 -0.000870414 -1.08631
78 1 -4.6284 4.61661 11.6062 1.97381 -1.08252 0.605187
79 1 -5.14315 4.55236 10.7729 0.973051 1.46302 -0.241441
80 1 -5.08827 3.68275 10.393 0.604432 -0.832332 0.745941
81 1 -5.05403 4.19604 9.52116 -0.387163 -1.56886 0.500864
82 1 -5.56945 4.37661 8.79846 2.26415 0.187505 0.519003
83 1 -5.04164 4.74592 8.055 0.347383 2.20392 0.139729
84 1 -5.55316 5.31596 7.44331 1.16928 -0.803839 -0.85506
85 1 -5.9096 6.16037 7.51232 1.31454 -0.191699 2.00085
86 1 -6.36797 6.7507 6.8699 -1.82485 -0.615376 0.47815
87 1 -6.01408 7.29574 6.1192 0.216032 -1.74155 -0.630608
88 1 -5.28803 6.82312 6.57163 -0.602429 0.0910775 -0.0046253
89 1 -5.05623 6.49757 5.73148 0.108721 1.80587 -0.22351
90 1 -5.64878 5.6511 5.69519 0.510037 -0.452576 -1.5815
91 1 -6.17535 6.22036 5.09996 -0.292657 -0.294946 -0.75872
92 1 -5.96723 6.82233 4.3275 -1.3336 1.1922 -0.00870377
93 1 -5.08256 6.83942 4.71018 0.259622 -0.0347644 -0.988266
94 1 -4.72403 6.95022 3.88519 0.512932 -0.342494 1.61439
95 1 -4.18641 7.53538 4.44434 -0.653878 -1.06147 -1.50116
96 1 -3.27997 7.36957 4.29838 -1.0279 0.0609912 -0.0930319
97 1 -2.35687 7.76128 4.3302 -0.908571 -0.118946 -1.7963
98 1 -2.52533 8.23924 3.51956 -0.445457 -0.17357 0.152722
99 1 -1.88436 8.58809 2.89352 0.47328 0.536609 -0.0248002
100 1 -2.11237 8.68449 1.99036 -0.558316 -0.373549 -1.18635
101 1 -6.82565 -7.9129 -6.92407 -0.7881 0.0477296 -0.89236
102 1 -6.06319 -8.25296 -6.42663 -0.243091 0.0144594 1.10742
103 1 -5.58192 -9.09166 -6.24058 -2.04228 -0.343246 0.216303
104 1 -6.41846 -9.5219 -6.56964 -0.516974 0.374353 -1.34675
105 1 -6.59829 -9.87969 -7.46977 0.717131 -0.914277 -1.37856
106 1 -5.8748 -9.80948 -8.06931 0.844125 0.433386 -0.634532
107 1 -5.21577 -10.4455 -7.77811 -0.588571 -1.6723 0.62107
108 1 -4.68006 -9.8997 -8.41496 -0.323233 -0.420288 -0.43989
109 1 -4.21187 -10.5742 -8.85088 1.02043 -0.0130673 0.529402
110 1 -5.04462 -10.2759 -9.30804 -0.837073 0.133651 2.05079
111 1 -5.54588 -9.39614 -9.52422 0.054935 -0.628791 -1.04278
112 1 -5.54562 -8.42154 -9.44998 1.80024 0.438529 -0.565799
113 1 -5.67394 -8.03439 -8.58908 0.896958 0.270707 0.472954
114 1 -5.16121 -8.32421 -7.7574 0.131138 -1.19965 -1.50622
115 1 -4.63289 -8.08268 -6.98554 -0.975542 -1.52318 -0.906294
116 1 -4.5296 -7.29351 -6.45302 0.566935 -0.417628 -0.903082
117 1 -4.56341 -6.36921 -6.22036 -0.426877 -1.24686 -0.355862
118 1 -5.29622 -6.53321 -5.63532 -0.322071 -0.796992 0.98669
119 1 -5.9501 -5.87143 -5.51802 0.305089 0.463953 -0.629308
120 1 -6.27532 -6.77035 -5.87839 -1.07023 0.217906 0.0224906
121 1 -6.3623 -7.67595 -5.67 -0.384094 2.06157 0.533414
122 1 -6.97378 -7.63175 -4.93999 1.00977 -1.11039 0.117665
123 1 -7.38997 -7.00403 -4.34954 -1.5588 -1.13377 -0.161955
124 1 -7.52005 -7.58269 -3.61606 -2.4963 0.269636 1.2649
125 1 -7.03254 -6.78783 -3.35332 0.513197 0.239678 1.51839
126 1 -6.15196 -7.12894 -3.51618 0.88272 -1.71935 0.341669
127 1 -5.29031 -6.64032 -3.76923 -0.995985 1.10424 -1.14362
128 1 -4.76267 -7.43962 -3.69828 -0.295773 -0.873081 -0.328648
129 1 -4.54043 -7.5248 -2.7465 -0.731909 2.0464 0.371876
130 1 -4.57535 -7.01914 -1.86433 0.395795 0.0168353 -1.10398
131 1 -3.61522 -6.82105 -1.60738 -0.373314 0.75992 -1.23196
132 1 -3.82953 -5.96698 -2.0302 -0.194782 -1.47999 0.385242
133 1 -4.34989 -5.76601 -1.25117 1.21304 -0.382819 0.772265
134 1 -4.27181 -4.79701 -1.12393 -1.1816 -1.01955 0.53754
135 1 -3.77767 -3.99495 -1.26133 1.09781 -0.620898 -1.37652
136 1 -3.2897 -3.74147 -0.451724 -0.0651551 -0.309377 -1.20413
137 1 -3.08571 -2.86801 -0.262505 1.90214 -0.288076 0.804155
138 1 -3.60871 -2.74385 0.507782 1.84119 0.981938 -0.738423
139 1 -4.48142 -2.37762 0.341394 -0.61276 0.241658 -0.466755
140 1 -4.47088 -2.09399 1.29001 -0.658358 0.0397574 1.59958
141 1 -3.54272 -2.04733 1.50998 -1.18372 0.84512 -0.556067
142 1 -2.78996 -2.11376 0.946346 0.929071 -0.414041 1.20299
143 1 -2.21379 -2.41511 0.268685 0.118938 -0.414144 -0.97023
144 1 -1.61973 -2.08227 0.960947 0.523064 -0.287393 -0.194745
145 1 -1.225 -2.00053 1.83326 -1.16687 -0.799439 -0.579949
146 1 -1.30656 -2.68206 2.48641 -0.345683 0.822924 0.987717
147 1 -2.24914 -2.63206 2.56302 0.107494 1.64672 -1.78121
148 1 -2.85352 -2.04018 2.94343 -1.09093 -1.03168 1.15675
149 1 -3.60754 -2.25018 3.50472 -2.39692 -0.293756 1.17529
150 1 -2.86166 -2.20178 4.08534 -0.107382 -0.0727668 1.7616
151 1 -3.29265 -2.12118 4.9065 0.0828422 -0.886827 0.942767
152 1 -3.61 -2.43095 5.75498 1.18884 -0.615574 -1.16261
153 1 -3.19806 -2.11815 6.56786 -1.19192 1.03669 -1.66414
154 1 -2.51501 -2.66574 6.87893 -0.584805 -0.629565 0.61789
155 1 -2.30428 -3.56118 7.19479 -1.39321 0.455338 1.26248
156 1 -2.94782 -4.12183 6.72025 -0.184243 1.21849 1.5904
157 1 -3.33151 -4.77881 6.06035 -0.153407 -0.0974812 -0.804694
158 1 -2.72621 -5.45718 5.71182 -0.889695 -0.155338 -0.122348
159 1 -2.22311 -6.20547 5.48976 1.24762 -0.942816 -0.0421746
160 1 -2.93832 -6.33887 4.83606 -0.990204 -1.32433 -1.74756
161 1 -3.27899 -6.84055 4.07495 1.89398 1.07431 -0.23043
162 1 -2.54266 -6.87579 3.43012 -0.882871 0.665189 0.595649
163 1 -2.01683 -6.75085 2.64121 0.237474 -0.10649 -0.463324
164 1 -2.3641 -7.07124 1.85105 0.058002 0.30313 0.756313
165 1 -2.34224 -8.01618 2.17682 -0.0147577 0.824478 1.10849
166 1 -2.82191 -8.35199 1.46982 -0.513368 -0.429452 1.03935
167 1 -2.38016 -9.18628 1.33066 0.233906 -0.496428 -0.157541
168 1 -2.00079 -9.4629 2.18943 0.234529 0.299089 -0.530206
169 1 -2.00715 -9.83425 3.03478 0.116174 0.284118 -1.18282
170 1 -2.1055 -10.8086 3.03561 0.528906 2.54542 -1.09171
171 1 -2.19873 -11.0553 2.08267 0.116321 1.28548 -0.531499
172 1 -2.50757 -11.837 1.70612 0.569432 0.414777 0.405456
173 1 -2.41011 -12.1181 0.798532 0.561908 -1.30304 -0.656201
174 1 -1.50322 -12.1561 1.10717 -0.857479 0.702003 0.607315
175 1 -1.40926 -11.1708 1.25897 -0.12433 0.855093 -0.0263151
176 1 -0.469819 -11.3073 1.54201 -0.127638 0.859202 -0.2449
177 1 0.192871 -10.6923 1.14775 0.879558 1.08257 -2.40778
178 1 0.130258 -10.4347 2.01092 -0.961491 1.64681 0.131867
179 1 0.70252 -10.7555 2.6635 1.53051 -0.331474 -1.65055
180 1 0.840934 -11.0403 3.59601 -0.120296 -0.555681 0.0587923
181 1 1.1144 -10.1866 4.00355 0.228652 0.891733 -0.17105
182 1 1.66369 -9.73209 3.36294 -0.361975 1.32967 0.392765
183 1 1.50176 -9.23743 4.24095 0.55553 0.481871 2.2359
184 1 2.46196 -8.82744 4.49691 -0.226289 0.323466 1.8629
185 1 2.57547 -9.44853 5.24946 0.638848 0.568245 -0.798053
186 1 3.37669 -9.62872 5.69934 -0.120997 -1.13596 0.478462
187 1 2.82624 -9.30444 6.43245 1.03683 0.600985 1.85011
188 1 1.90607 -9.20781 6.69517 -0.317746 -1.0014 0.2637
189 1 1.54947 -8.92575 7.54567 0.284951 0.656325 -0.903072
190 1 1.52619 -7.89703 7.66412 0.114128 1.08997 -0.0514225
191 1 1.85303 -6.89409 7.72179 0.314048 -0.960653 1.64152
192 1 2.6936 -7.09075 8.18412 -0.599619 0.764122 -0.308691
193 1 3.56337 -7.43216 8.57642 0.0504874 -0.939335 -0.13449
194 1 3.08609 -8.15216 8.14236 -0.119657 -0.381655 0.635587
195 1 3.52245 -7.86245 7.32037 -1.39674 0.138844 0.651067
196 1 3.94845 -6.97034 7.35089 1.16395 -0.34879 -1.71756
197 1 4.77786 -6.59216 6.98932 0.710052 -0.484055 0.71667
198 1 4.53597 -7.16158 6.27943 -1.44844 0.65726 -0.98853
199 1 3.94339 -6.91124 5.59139 0.0704757 1.29634 -0.0240226
200 1 3.81881 -6.04681 5.14873 1.02598 0.451241 -0.987978
ITEM: TIMESTEP
1
ITEM: NUMBER OF ATOMS
200
ITEM: BOX BOUNDS pp pp pp
-5.2373677999999998e+01 4.7626322000000002e+01
-5.4845078000000001e+01 4.5154921999999999e+01
-4.9129330000000003e+01 5.0870669999999997e+01
ITEM: ATOMS id type xu yu zu vx vy vz
1 1 -6.14778 -7.20937 -7.009 0.89218 -0.0923726 0.299447
2 1 -6.50853 -6.30463 -6.99681 -1.95254 0.126941 1.38697
3 1 -7.26064 -5.73069 -7.26648 -1.55361 0.842849 -0.16734
4 1 -7.68049 -5.38963 -8.02823 0.987511 -1.88098 -0.819393
5 1 -8.47674 -5.27402 -7.49697 -1.07363 1.01058 0.468105
6 1 -8.35546 -4.57107 -8.15941 -1.30292 0.926554 -2.76845
7 1 -7.98881 -4.18198 -7.40045 1.73199 0.717783 -0.772279
8 1 -8.5802 -3.52089 -6.8393 0.0146684 -0.315055 -1.56469
9 1 -7.81812 -3.15588 -7.33782 -1.5522 -2.20443 1.10282
10 1 -7.48627 -3.08621 -6.38761 1.33023 0.0842988 0.546636
11 1 -8.04331 -2.30255 -6.37257 -0.9391 -0.445563 0.750773
12 1 -7.16086 -1.91018 -6.26259 -0.392132 0.306411 1.36523
13 1 -7.74184 -1.4277 -6.91019 -0.0273702 -1.62461 0.59902
14 1 -7.54549 -0.687753 -6.32479 -0.64454 0.415171 -0.0317533
15 1 -7.10997 0.181492 -6.2683 0.401226 -0.127176 -0.154052
16 1 -6.44305 -0.238315 -5.71451 -0.319029 -1.66631 1.76918
17 1 -5.91728 -0.721264 -6.35813 0.288216 2.51743 -0.374871
18 1 -5.00097 -0.400471 -6.36307 2.56079 -1.64718 1.27317
19 1 -4.70772 -0.362931 -7.27253 1.32164 0.755789 -0.377925
20 1 -4.83277 0.533291 -7.62166 -1.13009 1.09074 -0.386306
21 1 -4.63037 1.3227 -7.07938 0.528122 0.129322 -0.0709711
22 1 -5.18184 2.03088 -6.79336 2.35683 2.40872 -1.30491
23 1 -4.93597 2.60854 -7.55527 -2.50668 -0.296743 -1.25539
24 1 -5.25639 3.35581 -7.09578 0.485182 0.885706 0.587786
25 1 -4.77256 3.87635 -6.40123 -0.653874 0.742764 -1.17503
26 1 -5.09797 4.45496 -5.67938 -0.056857 -1.10639 -1.91317
27 1 -4.45418 3.87535 -5.21615 -0.235059 0.649752 1.46357
28 1 -4.70042 3.66803 -4.34887 -0.606288 0.928356 0.191079
29 1 -4.72503 4.37579 -3.69672 0.481043 0.907975 0.409363
30 1 -4.24143 4.39255 -2.80499 -0.174876 -0.687054 -0.543255
31 1 -3.28373 4.59987 -2.8458 0.629231 0.84385 -0.662648
32 1 -2.4148 4.35193 -3.29369 1.1398 2.39608 1.18682
33 1 -1.88154 4.84976 -2.69894 0.755525 -0.641462 -0.462569
34 1 -1.45641 5.13977 -3.57395 -1.82745 0.858698 1.04565
35 1 -1.20976 6.00526 -3.11356 -0.758163 -0.167929 -1.11388
36 1 -1.76769 6.13136 -3.90036 0.758018 0.454368 0.418427
37 1 -2.53504 6.34605 -3.38192 -0.923697 -0.02432 0.178848
38 1 -3.01207 7.17311 -3.30022 0.704907 0.30931 0.556505
39 1 -3.40531 7.69115 -2.60494 -0.580173 -0.839197 0.439405
40 1 -3.79619 8.57545 -2.41134 -1.00227 1.15994 1.13512
41 1 -4.29186 9.34789 -2.47927 -1.3575 -0.506782 0.0705788
42 1 -5.18017 8.91309 -2.30694 -0.58067 -0.772151 -0.248777
43 1 -5.70038 9.72113 -2.33386 -0.412192 0.294246 0.817477
44 1 -6.47723 9.52932 -2.73819 2.53956 -1.07122 -0.735356
45 1 -6.99709 9.11729 -2.04698 2.00873 1.0642 -1.4798
46 1 -7.11896 9.54196 -1.19993 -0.38541 0.260588 0.878568
47 1 -7.51938 9.38657 -0.32806 0.343429 -0.170531 0.672663
48 1 -7.60523 8.48059 -0.517476 -2.16657 -1.34506 -0.110102
49 1 -6.68509 8.2295 -0.699484 0.0884398 -0.940737 1.15102
50 1 -7.1029 7.36301 -0.59794 -1.355 -0.210966 -0.294389
51 1 -6.51853 6.549 -0.509816 -0.915793 0.761714 0.171598
52 1 -5.67839 6.2404 -0.104949 -1.47135 1.77837 -0.360479
53 1 -6.00707 5.38552 -0.392599 -0.30906 1.0358 0.141919
54 1 -6.07157 5.08755 0.513569 0.100377 -0.674431 0.854969
55 1 -6.01897 4.10995 0.273343 -0.488017 0.0121899 -0.429572
56 1 -5.09889 3.82669 0.156146 0.0242543 -0.251166 -2.47937
57 1 -4.23558 4.02909 -0.436027 1.7555 -1.62247 -0.677417
58 1 -4.07257 4.62276 0.311276 0.835982 -0.361582 0.0467101
59 1 -4.28045 4.09246 1.17155 -0.01255 -0.0807277 1.46722
60 1 -3.30799 4.295 1.29376 0.605726 0.533909 0.449046
61 1 -3.15105 4.62056 2.22486 -0.173001 -0.279028 -0.546682
62 1 -3.10968 3.8316 2.7779 1.48893 -1.27031 0.833351
63 1 -3.37745 3.44848 3.69285 -1.18796 0.547498 0.839462
64 1 -3.15108 2.5136 3.99074 0.0518881 -1.37083 1.11392
65 1 -3.26073 3.21166 4.80366 -0.75817 0.712423 0.0482639
66 1 -3.93817 2.63542 5.3058 0.801292 0.36616 0.775058
67 1 -3.42206 2.74887 6.09267 0.415291 1.05431 0.729632
68 1 -3.62835 1.80107 6.09738 1.06697 1.76329 -1.03374
69 1 -2.91906 1.93088 6.90067 1.98986 -1.22886 -1.04871
70 1 -3.41804 2.24999 7.71121 -2.40923 -0.215878 -1.22035
71 1 -3.90887 2.99975 8.01051 0.270392 1.12907 0.524108
72 1 -3.15348 3.61831 8.15658 -0.314808 0.541001 2.39991
73 1 -3.02443 4.6034 8.15465 0.278431 1.01461 0.484788
74 1 -3.47801 4.66889 9.04439 1.01449 -0.605839 -0.052104
75 1 -3.0916 5.03438 9.82352 0.222747 2.212 0.983008
76 1 -3.13713 5.48427 10.8444 0.0959301 1.42999 -0.704103
77 1 -3.90527 5.11209 11.3272 -1.56832 0.16668 -1.20649
78 1 -4.6191 4.61087 11.6092 1.71281 -1.23498 0.59947
79 1 -5.13816 4.55981 10.7719 1.02925 1.49676 -0.15585
80 1 -5.08522 3.6787 10.3963 0.613413 -0.76575 0.579177
81 1 -5.05539 4.18777 9.5249 -0.146422 -1.74333 1.00885
82 1 -5.55858 4.37785 8.80005 2.07279 0.313991 0.100016
83 1 -5.04013 4.75697 8.05576 0.263762 2.20534 0.174442
84 1 -5.54693 5.31118 7.43911 1.30266 -1.07586 -0.835819
85 1 -5.90341 6.16023 7.52218 1.16527 0.1202 1.93298
86 1 -6.37685 6.74764 6.87221 -1.71515 -0.617132 0.450838
87 1 -6.01296 7.28673 6.11635 0.220995 -1.85902 -0.511049
88 1 -5.29131 6.82379 6.57195 -0.701999 0.172282 0.14073
89 1 -5.05596 6.50595 5.72996 -0.00141697 1.54181 -0.387463
90 1 -5.64599 5.64945 5.68721 0.609355 -0.199852 -1.61173
91 1 -6.17658 6.21904 5.096 -0.201427 -0.231635 -0.823772
92 1 -5.97391 6.82806 4.32777 -1.32781 1.10005 0.121567
93 1 -5.08171 6.83913 4.70613 0.0443589 -0.0876374 -0.588298
94 1 -4.72101 6.94871 3.89242 0.700851 -0.276965 1.20649
95 1 -4.19017 7.53006 4.43683 -0.841499 -1.04503 -1.48014
96 1 -3.28434 7.36996 4.29785 -0.710053 0.0953459 -0.121762
97 1 -2.36177 7.7605 4.32125 -1.04613 -0.204212 -1.76113
98 1 -2.52757 8.23839 3.52027 -0.44925 -0.148597 0.10432
99 1 -1.88191 8.59073 2.89375 0.492346 0.518091 0.101904
100 1 -2.11525 8.68266 1.98409 -0.588445 -0.362381 -1.29867
101 1 -6.82934 -7.91257 -6.92845 -0.671003 0.0881942 -0.854988
102 1 -6.06428 -8.25322 -6.42138 -0.20919 -0.10645 0.99033
103 1 -5.59254 -9.0933 -6.23968 -2.1962 -0.314099 0.148712
104 1 -6.42079 -9.51994 -6.57649 -0.421712 0.405566 -1.40125
105 1 -6.59484 -9.88418 -7.47626 0.660948 -0.883721 -1.21616
106 1 -5.87034 -9.80728 -8.07267 0.94929 0.440077 -0.707041
107 1 -5.21854 -10.4536 -7.77524 -0.518086 -1.58169 0.517156
108 1 -4.68209 -9.90156 -8.41659 -0.491436 -0.331771 -0.201118
109 1 -4.20683 -10.5745 -8.8486 0.990485 -0.106562 0.379502
110 1 -5.04887 -10.2749 -9.29786 -0.856641 0.268404 2.01732
111 1 -5.54531 -9.39961 -9.52927 0.171892 -0.746756 -0.97298
112 1 -5.5366 -8.41957 -9.45291 1.8047 0.341617 -0.594325
113 1 -5.66922 -8.03315 -8.58621 0.988734 0.223138 0.655853
114 1 -5.16079 -8.33006 -7.76528 0.0408641 -1.14291 -1.63839
115 1 -4.63783 -8.09035 -6.99014 -0.999405 -1.53213 -0.922256
116 1 -4.52679 -7.29565 -6.45752 0.555915 -0.4557 -0.908215
117 1 -4.56548 -6.37533 -6.22219 -0.406259 -1.19793 -0.367364
118 1 -5.29755 -6.53744 -5.63035 -0.209976 -0.893417 1.0003
119 1 -5.94898 -5.86934 -5.52132 0.149527 0.366147 -0.691441
120 1 -6.28061 -6.76846 -5.87827 -1.04029 0.568225 0.0177753
121 1 -6.36428 -7.66585 -5.66711 -0.397771 1.94546 0.607665
122 1 -6.96877 -7.63731 -4.93934 0.979447 -1.10717 0.160863
123 1 -7.39774 -7.00953 -4.35055 -1.5471 -1.07688 -0.240657
124 1 -7.5325 -7.58141 -3.60954 -2.47225 0.259468 1.3435
125 1 -7.03003 -6.78669 -3.34571 0.495955 0.197538 1.51489
126 1 -6.14709 -7.13731 -3.51463 1.05151 -1.62116 0.282945
127 1 -5.29574 -6.63505 -3.77482 -1.15965 0.981941 -1.08798
128 1 -4.76412 -7.44401 -3.6997 -0.294673 -0.859731 -0.240821
129 1 -4.54416 -7.51429 -2.74443 -0.759042 2.14932 0.441243
130 1 -4.57289 -7.01917 -1.87016 0.58115 -0.020533 -1.21506
131 1 -3.61758 -6.81717 -1.61373 -0.562529 0.765877 -1.29521
132 1 -3.83047 -5.97455 -2.02822 -0.185991 -1.52477 0.392769
133 1 -4.34381 -5.76775 -1.24727 1.21483 -0.318942 0.788793
134 1 -4.27778 -4.80242 -1.12125 -1.19421 -1.11351 0.529651
135 1 -3.77202 -3.9979 -1.26806 1.14572 -0.583336 -1.31733
136 1 -3.2903 -3.74378 -0.45805 -0.167768 -0.586335 -1.31773
137 1 -3.07587 -2.86877 -0.258567 2.03704 -0.0426967 0.752493
138 1 -3.59967 -2.73888 0.504367 1.7455 1.01656 -0.618315
139 1 -4.48446 -2.37633 0.339351 -0.582334 0.270673 -0.332969
140 1 -4.47422 -2.09389 1.29769 -0.692077 -0.00546381 1.45591
141 1 -3.54877 -2.0431 1.50735 -1.21146 0.844661 -0.503101
142 1 -2.78529 -2.11576 0.95243 0.942057 -0.390656 1.22528
143 1 -2.21295 -2.41724 0.263702 0.211984 -0.430017 -1.00314
144 1 -1.61722 -2.08376 0.959902 0.473124 -0.309606 -0.24198
145 1 -1.23084 -2.00441 1.83024 -1.16476 -0.749894 -0.615804
146 1 -1.30812 -2.67808 2.49145 -0.270928 0.76783 1.03015
147 1 -2.24845 -2.62413 2.5539 0.155415 1.53214 -1.86419
148 1 -2.85934 -2.04502 2.94944 -1.23673 -0.911836 1.25332
149 1 -3.61965 -2.25165 3.51047 -2.41474 -0.291694 1.13917
150 1 -2.86183 -2.20218 4.09384 0.0221589 -0.0870188 1.60874
151 1 -3.29243 -2.12556 4.91157 0.00705391 -0.854236 1.06752
152 1 -3.60405 -2.43404 5.74924 1.17651 -0.6334 -1.11486
153 1 -3.2044 -2.11269 6.55934 -1.3049 1.12537 -1.71974
154 1 -2.51755 -2.66931 6.88221 -0.467199 -0.76338 0.679573
155 1 -2.3114 -3.55888 7.20097 -1.43993 0.462673 1.22065
156 1 -2.94879 -4.1159 6.72801 -0.216723 1.13356 1.49375
157 1 -3.33202 -4.77912 6.05655 -0.0511314 -0.0116196 -0.700724
158 1 -2.73103 -5.45747 5.71136 -1.01238 0.00540786 -0.0722826
159 1 -2.21674 -6.21062 5.48931 1.26235 -1.08862 -0.149404
160 1 -2.94318 -6.34552 4.82735 -0.919231 -1.31139 -1.6884
161 1 -3.26932 -6.83511 4.07377 1.94046 1.081 -0.252856
162 1 -2.54725 -6.87247 3.43328 -0.925684 0.665717 0.633784
163 1 -2.01537 -6.75117 2.63941 0.346296 -0.0142921 -0.224317
164 1 -2.36406 -7.07033 1.85438 -0.0506454 0.0587243 0.55966
165 1 -2.34193 -8.01145 2.18281 0.125085 1.05788 1.2682
166 1 -2.82489 -8.35431 1.47448 -0.660201 -0.500869 0.842338
167 1 -2.37887 -9.18888 1.33004 0.274257 -0.535003 -0.0935637
168 1 -1.9997 -9.4611 2.18605 0.204963 0.420803 -0.821979
169 1 -2.0066 -9.83328 3.02941 0.107991 0.12591 -0.958798
170 1 -2.10286 -10.7957 3.02986 0.524433 2.57389 -1.20439
171 1 -2.19788 -11.0482 2.08054 0.219094 1.53216 -0.327679
172 1 -2.50491 -11.8355 1.70793 0.502145 0.206329 0.30631
173 1 -2.40731 -12.1246 0.795183 0.546186 -1.29911 -0.670022
174 1 -1.50745 -12.1522 1.1103 -0.825205 0.86315 0.648596
175 1 -1.40966 -11.167 1.25889 -0.0392102 0.681919 -0.00852838
176 1 -0.470573 -11.3027 1.54061 -0.163412 0.951518 -0.324112
177 1 0.197164 -10.6873 1.13475 0.824189 0.902372 -2.70668
178 1 0.125009 -10.426 2.01224 -1.1206 1.81684 0.338602
179 1 0.710563 -10.7574 2.65589 1.67435 -0.430872 -1.40036
180 1 0.840371 -11.0428 3.59616 -0.102879 -0.423025 -0.00325992
181 1 1.11542 -10.1824 4.00258 0.172555 0.751179 -0.217245
182 1 1.66181 -9.72519 3.36533 -0.387524 1.43494 0.562734
183 1 1.50536 -9.23489 4.25191 0.8796 0.530156 2.14009
184 1 2.46016 -8.82627 4.50621 -0.491604 0.158992 1.84381
185 1 2.57832 -9.44547 5.24514 0.510464 0.641419 -0.907116
186 1 3.37631 -9.63442 5.702 -0.0427837 -1.13996 0.589901
187 1 2.83148 -9.30147 6.44158 1.05508 0.582616 1.79776
188 1 1.90449 -9.2128 6.69651 -0.305183 -0.998264 0.264768
189 1 1.55091 -8.92189 7.54118 0.28633 0.894767 -0.883004
190 1 1.52702 -7.89151 7.66383 0.212875 1.10636 -0.0626255
191 1 1.85456 -6.8996 7.73006 0.284466 -1.23085 1.65397
192 1 2.69085 -7.08707 8.18264 -0.478731 0.699916 -0.271669
193 1 3.56319 -7.43675 8.57549 -0.123493 -0.88748 -0.237017
194 1 3.08558 -8.15396 8.14542 -0.0906264 -0.345 0.591907
195 1 3.51552 -7.86152 7.32379 -1.37323 0.238848 0.712464
196 1 3.95432 -6.97228 7.34221 1.1687 -0.436086 -1.74654
197 1 4.78129 -6.59451 6.99318 0.669135 -0.459905 0.808117
198 1 4.5288 -7.15853 6.2745 -1.39903 0.570158 -0.94982
199 1 3.94355 -6.90451 5.59099 -0.018993 1.39678 -0.147269
200 1 3.82397 -6.04473 5.14388 1.03645 0.384227 -0.952082
ITEM: TIMESTEP
2
ITEM: NUMBER OF ATOMS
200
ITEM: BOX BOUNDS pp pp pp
-5.2373677999999998e+01 4.7626322000000002e+01
-5.4845078000000001e+01 4.5154921999999999e+01
-4.9129330000000003e+01 5.0870669999999997e+01
ITEM: ATOMS id type xu yu zu vx vy vz
1 1 -6.14352 -7.20989 -7.00742 0.80189 -0.106155 0.33308
2 1 -6.51841 -6.30401 -6.9899 -1.99843 0.111096 1.37354
3 1 -7.26807 -5.72675 -7.26693 -1.40521 0.722864 0.0109779
4 1 -7.67572 -5.39892 -8.03261 0.879725 -1.81695 -0.939121
5 1 -8.48203 -5.26885 -7.49474 -1.01207 1.06789 0.393731
6 1 -8.36223 -4.56669 -8.17356 -1.3832 0.826382 -2.83677
7 1 -7.98034 -4.17792 -7.40355 1.63201 0.869517 -0.513991
8 1 -8.57955 -3.52278 -6.84758 0.218264 -0.453522 -1.72675
9 1 -7.82588 -3.1668 -7.33176 -1.52413 -2.14155 1.30819
10 1 -7.47979 -3.08579 -6.38531 1.25357 0.0884358 0.37305
11 1 -8.04791 -2.30481 -6.3688 -0.885565 -0.465844 0.759375
12 1 -7.16315 -1.90853 -6.256 -0.525395 0.345475 1.27205
13 1 -7.74175 -1.43592 -6.90698 0.0614684 -1.64744 0.686273
14 1 -7.54862 -0.6856 -6.32494 -0.609233 0.436109 -0.0388139
15 1 -7.108 0.180699 -6.26907 0.397428 -0.19549 -0.143497
16 1 -6.44467 -0.246649 -5.7057 -0.342921 -1.6595 1.74844
17 1 -5.91575 -0.708629 -6.36001 0.3335 2.53676 -0.378911
18 1 -4.9883 -0.408736 -6.35666 2.50433 -1.66008 1.27715
19 1 -4.70111 -0.359049 -7.2745 1.31341 0.802351 -0.398178
20 1 -4.83837 0.538806 -7.62344 -1.10899 1.10623 -0.322544
21 1 -4.62762 1.323 -7.07993 0.567502 -0.00179812 -0.144949
22 1 -5.17014 2.0433 -6.80003 2.31917 2.53942 -1.34118
23 1 -4.94843 2.60656 -7.56152 -2.4764 -0.465018 -1.25862
24 1 -5.25394 3.36071 -7.09241 0.493609 1.05113 0.741857
25 1 -4.77605 3.88001 -6.40715 -0.728428 0.719203 -1.19492
26 1 -5.09803 4.44916 -5.68899 0.0278476 -1.20375 -1.9142
27 1 -4.45536 3.87887 -5.2095 -0.233996 0.761702 1.17672
28 1 -4.70361 3.67256 -4.34737 -0.673429 0.883033 0.429113
29 1 -4.72239 4.38032 -3.69427 0.570791 0.902179 0.55912
30 1 -4.24232 4.38915 -2.80814 -0.166797 -0.669711 -0.708719
31 1 -3.2804 4.60394 -2.8493 0.686907 0.784527 -0.73425
32 1 -2.40961 4.3639 -3.28775 0.910767 2.36244 1.1566
33 1 -1.87742 4.84685 -2.7015 0.916721 -0.496895 -0.519317
34 1 -1.46566 5.14427 -3.56808 -1.86738 0.933453 1.28213
35 1 -1.21377 6.00404 -3.11944 -0.829969 -0.313346 -1.21332
36 1 -1.76373 6.13361 -3.89824 0.799818 0.453688 0.420212
37 1 -2.53972 6.34591 -3.38095 -0.935033 -0.0394943 0.201151
38 1 -3.00851 7.17462 -3.29752 0.716462 0.300154 0.523596
39 1 -3.40836 7.68726 -2.60261 -0.64746 -0.705833 0.496978
40 1 -3.80075 8.58045 -2.40567 -0.805618 0.811416 1.13347
41 1 -4.29939 9.34575 -2.4789 -1.65757 -0.332256 0.0754959
42 1 -5.18271 8.90941 -2.30826 -0.448346 -0.69488 -0.277362
43 1 -5.7013 9.72286 -2.32917 0.0753017 0.402598 1.07584
44 1 -6.46564 9.52369 -2.74247 2.07828 -1.18346 -1.00901
45 1 -6.98704 9.12256 -2.05441 1.99931 1.05024 -1.4551
46 1 -7.12094 9.54324 -1.19536 -0.40298 0.240872 0.92433
47 1 -7.51755 9.38619 -0.324719 0.381989 -0.0110842 0.662136
48 1 -7.61597 8.47335 -0.518166 -2.11258 -1.5223 -0.162333
49 1 -6.6848 8.22479 -0.693708 0.010289 -0.93989 1.16206
50 1 -7.10941 7.36171 -0.599381 -1.25159 -0.306273 -0.281853
51 1 -6.52314 6.55305 -0.508896 -0.93637 0.858973 0.192309
52 1 -5.68595 6.24935 -0.106832 -1.54365 1.79917 -0.389236
53 1 -6.00863 5.39072 -0.391943 -0.313033 1.03891 0.135041
54 1 -6.07103 5.08376 0.517784 0.114062 -0.835425 0.816955
55 1 -6.02133 4.11041 0.271277 -0.445364 0.168282 -0.398518
56 1 -5.09824 3.82564 0.143375 0.228539 -0.168567 -2.62571
57 1 -4.22739 4.02089 -0.438925 1.52179 -1.64812 -0.474038
58 1 -4.06853 4.62058 0.311943 0.776866 -0.519876 0.215125
59 1 -4.28003 4.09243 1.17843 0.181969 0.0705228 1.28019
60 1 -3.30529 4.29772 1.29628 0.468374 0.547467 0.550684
61 1 -3.15197 4.619 2.22181 -0.195164 -0.354431 -0.653642
62 1 -3.10239 3.82507 2.78252 1.4272 -1.32206 1.00552
63 1 -3.38315 3.45103 3.69669 -1.08754 0.458287 0.701792
64 1 -3.15101 2.50766 3.99678 -0.0248678 -0.994291 1.30034
65 1 -3.26479 3.21441 4.80358 -0.860973 0.389902 -0.0834848
66 1 -3.9339 2.63751 5.30928 0.902258 0.464715 0.617532
67 1 -3.41989 2.75405 6.09647 0.453263 1.02648 0.791774
68 1 -3.62248 1.81011 6.09279 1.2805 1.83935 -0.802775
69 1 -2.90985 1.92479 6.89515 1.68563 -1.19894 -1.15019
70 1 -3.42976 2.24863 7.70471 -2.27701 -0.331229 -1.39184
71 1 -3.90743 3.00574 8.01324 0.308632 1.26135 0.565174
72 1 -3.15523 3.62117 8.16855 -0.380069 0.608649 2.38612
73 1 -3.02326 4.60818 8.15741 0.193765 0.890081 0.616152
74 1 -3.47287 4.66572 9.04358 1.04888 -0.648939 -0.241522
75 1 -3.09043 5.04591 9.82949 0.233393 2.38485 1.37388
76 1 -3.13679 5.49096 10.8402 0.0330533 1.24453 -0.990881
77 1 -3.91237 5.11341 11.3208 -1.24692 0.379496 -1.36155
78 1 -4.61127 4.60426 11.6122 1.40349 -1.42079 0.601556
79 1 -5.13285 4.56733 10.7714 1.09634 1.48912 -0.074654
80 1 -5.08214 3.67509 10.3988 0.618959 -0.665026 0.44008
81 1 -5.0555 4.1786 9.53125 0.0925032 -1.91677 1.51236
82 1 -5.54872 4.37975 8.79946 1.88068 0.445028 -0.320598
83 1 -5.039 4.76798 8.05674 0.203313 2.18587 0.228563
84 1 -5.54013 5.3052 7.43495 1.39387 -1.27346 -0.838114
85 1 -5.89795 6.16158 7.53165 1.02273 0.396096 1.8435
86 1 -6.38512 6.74453 6.87441 -1.58305 -0.629931 0.433839
87 1 -6.01187 7.27715 6.11409 0.19917 -1.96773 -0.395875
88 1 -5.29505 6.82484 6.57304 -0.780091 0.235565 0.293986
89 1 -5.05625 6.51298 5.72761 -0.117753 1.27098 -0.546236
90 1 -5.64268 5.6491 5.67908 0.71395 0.0625747 -1.63936
91 1 -6.17736 6.21804 5.09172 -0.111844 -0.167838 -0.88749
92 1 -5.98051 6.83333 4.32872 -1.30114 1.00805 0.257883
93 1 -5.08212 6.83854 4.7043 -0.228978 -0.15121 -0.121272
94 1 -4.71702 6.94745 3.89726 0.885811 -0.246018 0.680352
95 1 -4.19482 7.52493 4.42954 -0.997817 -0.982344 -1.41699
96 1 -3.28707 7.37052 4.29717 -0.388336 0.126191 -0.152171
97 1 -2.36733 7.75923 4.31259 -1.16901 -0.311743 -1.68337
98 1 -2.52982 8.23775 3.5206 -0.448072 -0.0912574 0.00185518
99 1 -1.87943 8.59327 2.89454 0.486495 0.497376 0.195474